LAMMPS data file via write_data, version 26 Jan 2017, timestep = 50000

2004 atoms
14 atom types
1365 bonds
18 bond types
786 angles
31 angle types
207 dihedrals
21 dihedral types
12 impropers
2 improper types

3.6840193999999997e+01 6.4211560000000006e+01 xlo xhi
4.1013691000000001e+01 6.8385058000000001e+01 ylo yhi
2.9768094999999999e+01 5.7139462000000002e+01 zlo zhi

Masses

1 12.011
2 12.011
3 15.999
4 1.008
5 14.007
6 12.011
7 12.011
8 12.011
9 15.999
10 1.008
11 1.008
12 32.066
13 16
14 1.01

Pair Coeffs # lj/charmm/coul/long

1 0.11 3.56359 0.11 3.56359
2 0.08 3.6705 0.01 3.38542
3 0.12 3.02906 0.12 2.49452
4 0.022 2.35197 0.022 2.35197
5 0.2 3.29632 0.2 2.76179
6 0.02 4.05359 0.01 3.38542
7 0.055 3.87541 0.01 3.38542
8 0.07 3.55005 0.07 3.55005
9 0.1521 3.15378 0.1521 3.15378
10 0.046 0.400014 0.046 0.400014
11 0.03 2.42004 0.03 2.42004
12 0.45 3.56359 0.45 3.56359
13 0.1521 3.15057 0.1521 3.15057
14 0.046 0.400014 0.046 0.400014

Bond Coeffs # harmonic

1 250 1.49
2 620 1.23
3 370 1.345
4 322 1.111
5 320 1.43
6 440 0.997
7 222.5 1.538
8 330 1.08
9 230 1.49
10 309 1.111
11 305 1.375
12 340 1.08
13 334.3 1.411
14 545 0.96
15 222.5 1.53
16 198 1.818
17 240 1.816
18 450 0.9572

Angle Coeffs # charmm

1 33 109.5 30 2.163
2 50 120 0 0
3 34 123 0 0
4 80 121 0 0
5 80 116.5 0 0
6 80 122.5 0 0
7 35.5 108.4 5.4 1.802
8 50 107 0 0
9 70 113.5 0 0
10 48 108 0 0
11 35 117 0 0
12 51.8 107.5 0 0
13 33.43 110.1 22.53 2.179
14 52 108 0 0
15 50 109.5 0 0
16 35 111 0 0
17 45.8 122.3 0 0
18 49.3 107.5 0 0
19 40 120 35 2.4162
20 30 120 22 2.1525
21 45.2 120 0 0
22 65 108 0 0
23 35.5 109 5.4 1.802
24 36 115 0 0
25 58.35 113.5 11.16 2.561
26 58 114.5 0 0
27 26.5 110.1 22.53 2.179
28 34 95 0 0
29 46.1 111.3 0 0
30 51.5 109.5 0 0
31 55 104.52 0 0

Dihedral Coeffs # charmm

1 0.2 1 180 1
2 1.8 1 0 1
3 0 1 0 1
4 1.6 1 0 0.5
5 2.5 2 180 0.5
6 2.5 2 180 1
7 0.6 1 0 1
8 0.2 3 0 1
9 0.23 2 180 1
10 0.04 3 0 1
11 1.4 1 0 1
12 3.1 2 180 1
13 4.2 2 180 1
14 3.1 2 180 0.5
15 0.99 2 180 1
16 2.4 2 180 1
17 0.195 3 0 1
18 0.24 1 180 0.5
19 0.37 3 0 0.5
20 0.28 3 0 1
21 0.01 3 0 1

Improper Coeffs # harmonic

1 120 0
2 20 0

Atoms # full

1912 611 13 -8.3399999999999996e-01 4.3678454944582590e+01 4.1265005729259229e+01 3.5848848746891406e+01 1 -1 0
330 83 14 4.1699999999999998e-01 3.7804536167348829e+01 4.5037745571498334e+01 3.2636723754059915e+01 0 0 1
127 16 13 -8.3399999999999996e-01 4.7487012537216721e+01 4.9222024505142706e+01 3.2817811436550500e+01 1 0 1
731 217 14 4.1699999999999998e-01 3.9529656903944208e+01 4.4393931550125693e+01 3.1497921066647585e+01 1 2 -1
1761 560 14 4.1699999999999998e-01 3.9502657626462891e+01 4.3731705606323366e+01 3.3463923543793577e+01 -1 1 1
164 28 14 4.1699999999999998e-01 4.0315855490736446e+01 4.7923743346714396e+01 3.3189284524759721e+01 -1 0 2
1759 560 13 -8.3399999999999996e-01 4.0247490036820345e+01 4.3490077095636714e+01 3.4014443987026453e+01 -1 1 1
1998 639 14 4.1699999999999998e-01 3.8133118082108929e+01 5.4150411588513407e+01 3.3096553934285623e+01 1 0 0
626 182 14 4.1699999999999998e-01 3.8802991305529382e+01 4.8541469930929715e+01 3.0167959136423001e+01 1 0 2
1836 585 14 4.1699999999999998e-01 5.0194402932677711e+01 5.1736210968690017e+01 3.0652842195556111e+01 0 -1 1
1754 558 14 4.1699999999999998e-01 5.0195769481512770e+01 4.9364595204854162e+01 3.0330085115664030e+01 1 3 -1
730 217 13 -8.3399999999999996e-01 4.0443535092068487e+01 4.4207800389432109e+01 3.1282477797637892e+01 1 2 -1
217 46 13 -8.3399999999999996e-01 3.7899406013155222e+01 4.2332058122300687e+01 3.0071634972650592e+01 1 1 1
1996 639 13 -8.3399999999999996e-01 3.8111510336799270e+01 5.3303635011478633e+01 3.2650756609585400e+01 1 0 0
328 83 13 -8.3399999999999996e-01 3.7951612941420706e+01 4.4095496280772721e+01 3.2554459671405645e+01 0 0 1
1913 611 14 4.1699999999999998e-01 4.4538685049636598e+01 4.1635705065438394e+01 3.5651824800011291e+01 1 -1 0
1151 357 14 4.1699999999999998e-01 4.0685147106863532e+01 4.5125563841466061e+01 3.5878486104651955e+01 0 0 0
329 83 14 4.1699999999999998e-01 3.7218544227924816e+01 4.3696368435376769e+01 3.3023010091342371e+01 0 0 1
1224 381 14 4.1699999999999998e-01 3.6988668694290588e+01 4.6705028633425137e+01 3.3894970396587276e+01 2 1 -1
498 139 14 4.1699999999999998e-01 4.0931512472689306e+01 4.1721629630137393e+01 3.4198792198655433e+01 0 0 0
556 159 13 -8.3399999999999996e-01 4.1895134950992507e+01 4.6357541402537024e+01 3.1094871794670343e+01 0 1 1
1309 410 13 -8.3399999999999996e-01 4.2250919230353801e+01 5.3146536019404124e+01 3.0226619313472433e+01 0 0 0
611 177 14 4.1699999999999998e-01 5.0118130213968300e+01 4.3872810714393495e+01 3.6531797083789797e+01 -2 1 0
1914 611 14 4.1699999999999998e-01 4.3289426652054360e+01 4.1092397819324077e+01 3.4991471546410921e+01 1 -1 0
507 142 14 4.1699999999999998e-01 4.5737065900369188e+01 4.2306044222624436e+01 3.3731491916161986e+01 1 -1 -2
1560 493 14 4.1699999999999998e-01 5.0375865746498469e+01 4.4230670880073205e+01 3.3326590918114682e+01 0 0 0
154 25 13 -8.3399999999999996e-01 4.6763632064658736e+01 4.6100476059723547e+01 3.6208156428658008e+01 -1 0 1
1745 555 14 4.1699999999999998e-01 5.0412500550685671e+01 4.7971705718892835e+01 3.6564712507506087e+01 -1 2 -1
358 93 13 -8.3399999999999996e-01 4.5850058405243452e+01 5.0097178308890101e+01 3.6207168439835996e+01 -1 0 -1
558 159 14 4.1699999999999998e-01 4.1077178772039666e+01 4.5860788395971575e+01 3.1074465364317188e+01 0 1 1
1987 636 13 -8.3399999999999996e-01 3.8017559354280216e+01 5.4342983192794705e+01 2.9969083476323011e+01 1 0 0
1559 493 14 4.1699999999999998e-01 4.8888218415655743e+01 4.3978107987745950e+01 3.3204064490798309e+01 0 0 0
1558 493 13 -8.3399999999999996e-01 4.9683569178891368e+01 4.3633574697502674e+01 3.3610201705319675e+01 0 0 0
1842 587 14 4.1699999999999998e-01 4.5174208165888473e+01 4.5939656220101533e+01 3.5279223724592647e+01 0 1 1
898 273 13 -8.3399999999999996e-01 4.1812657892231137e+01 4.5758394452513507e+01 3.3844861361696978e+01 1 1 1
766 229 13 -8.3399999999999996e-01 4.4286356334891593e+01 4.7210917248892549e+01 3.2365297886244107e+01 0 0 0
767 229 14 4.1699999999999998e-01 4.3497410395482120e+01 4.6867674980998757e+01 3.1945796777179623e+01 0 0 0
900 273 14 4.1699999999999998e-01 4.2586818536574604e+01 4.6147651724358994e+01 3.4251540177846785e+01 1 1 1
191 37 14 4.1699999999999998e-01 4.6239299767587163e+01 4.3707463083187001e+01 3.1890061174222438e+01 1 2 0
1840 587 13 -8.3399999999999996e-01 4.4339879136655632e+01 4.6313685778223167e+01 3.4995975822805640e+01 0 1 1
1841 587 14 4.1699999999999998e-01 4.4541215775652063e+01 4.6750073979763847e+01 3.4168170327470008e+01 0 1 1
190 37 13 -8.3399999999999996e-01 4.7001286514938435e+01 4.4281688033318645e+01 3.1966707138532463e+01 1 2 0
192 37 14 4.1699999999999998e-01 4.7489823620954205e+01 4.4141721554728917e+01 3.1155551040210579e+01 1 2 0
1711 544 13 -8.3399999999999996e-01 4.5322867080945194e+01 5.0792131474768667e+01 3.1945903138454259e+01 0 0 1
123 14 14 4.1699999999999998e-01 3.8757048953408116e+01 4.2446336708701409e+01 3.5800956366720655e+01 1 1 0
768 229 14 4.1699999999999998e-01 4.4950660789263154e+01 4.7195306070304923e+01 3.1676321623193576e+01 0 0 0
899 273 14 4.1699999999999998e-01 4.2010602691126188e+01 4.5752990242885765e+01 3.2908367184050363e+01 1 1 1
1137 352 14 4.1699999999999998e-01 5.0206873801835819e+01 5.3178545388236962e+01 3.3132827413302479e+01 0 0 0
1923 614 14 4.1699999999999998e-01 4.9707420645082422e+01 4.6287564233347666e+01 3.2258025387069274e+01 1 1 2
627 182 14 4.1699999999999998e-01 3.8876389635005438e+01 4.9261523395807238e+01 3.1497632512265849e+01 1 0 2
506 142 14 4.1699999999999998e-01 4.6461649207637201e+01 4.1080567912882728e+01 3.4246353552352524e+01 1 -1 -2
1674 531 14 4.1699999999999998e-01 4.0063864741648224e+01 4.8865022607276337e+01 3.5796087508717605e+01 1 1 2
128 16 14 4.1699999999999998e-01 4.7012495897698095e+01 4.9746620401022412e+01 3.2172935114135839e+01 1 0 1
218 46 14 4.1699999999999998e-01 3.7454485262977812e+01 4.3093045186407117e+01 3.0444698548693591e+01 1 1 1
436 119 13 -8.3399999999999996e-01 4.7766988010349259e+01 4.6456427904543197e+01 3.3424601235125799e+01 2 2 -1
437 119 14 4.1699999999999998e-01 4.7420291869343103e+01 4.7317628414882023e+01 3.3191431293660941e+01 2 2 -1
438 119 14 4.1699999999999998e-01 4.7189829662802438e+01 4.5836586072866091e+01 3.2978598649183922e+01 2 2 -1
589 170 13 -8.3399999999999996e-01 4.6235246563158050e+01 4.7103147835310217e+01 3.0612703929135520e+01 1 0 0
1106 342 14 4.1699999999999998e-01 4.6337895031804202e+01 5.3739109867975806e+01 3.0992129295414099e+01 0 0 0
505 142 13 -8.3399999999999996e-01 4.6167724854401456e+01 4.1952585183753200e+01 3.4509845202755265e+01 1 -1 -2
1152 357 14 4.1699999999999998e-01 4.0465973859993404e+01 4.6586086634395095e+01 3.6211251374853134e+01 0 0 0
451 124 13 -8.3399999999999996e-01 3.6887187134916353e+01 5.1018270883894182e+01 3.3234795126870353e+01 -1 0 1
360 93 14 4.1699999999999998e-01 4.5424049559894385e+01 5.0109173665792788e+01 3.5350075905335778e+01 -1 0 -1
963 294 14 4.1699999999999998e-01 4.1997625263892594e+01 5.1528454871764559e+01 3.5628542904693113e+01 1 0 0
1251 390 14 4.1699999999999998e-01 4.1757089995431720e+01 5.2203259717957202e+01 3.3458028462859822e+01 2 -1 1
625 182 13 -8.3399999999999996e-01 3.8374836578713158e+01 4.9225196305305538e+01 3.0683164470725934e+01 1 0 2
1549 490 13 -8.3399999999999996e-01 4.2061032580507046e+01 4.9213054305715872e+01 3.0788848006338693e+01 1 1 0
1915 612 13 -8.3399999999999996e-01 4.4940258864476363e+01 4.1648195106981895e+01 3.1888851054819085e+01 2 1 0
163 28 13 -8.3399999999999996e-01 4.0356680775665865e+01 4.8864008137831888e+01 3.3014733505497517e+01 -1 0 2
165 28 14 4.1699999999999998e-01 4.0822674614116018e+01 4.9227834832669259e+01 3.3767536483965117e+01 -1 0 2
1550 490 14 4.1699999999999998e-01 4.1315939373090202e+01 4.9353633880603127e+01 3.1373062932493671e+01 1 1 0
557 159 14 4.1699999999999998e-01 4.2379136907846998e+01 4.6054573817108469e+01 3.0326636741572720e+01 0 1 1
1672 531 13 -8.3399999999999996e-01 4.0787245777312080e+01 4.8317507002990041e+01 3.6101344862228778e+01 1 1 2
26 1 11 1.1500000000000000e-01 3.9402402827033541e+01 5.3043814029735387e+01 3.5621824014895772e+01 0 0 0
1222 381 13 -8.3399999999999996e-01 3.7417969340876439e+01 4.6600249017097575e+01 3.3045879079795597e+01 2 1 -1
962 294 14 4.1699999999999998e-01 4.0819715055378133e+01 5.0603487522934756e+01 3.5407501513332072e+01 1 0 0
1089 336 14 4.1699999999999998e-01 3.8056859621733167e+01 5.0004507877073451e+01 3.5932229916441131e+01 -1 0 0
1150 357 13 -8.3399999999999996e-01 4.0391948551429877e+01 4.5706178563065322e+01 3.6580735655273322e+01 0 0 0
1088 336 14 4.1699999999999998e-01 3.8386090738352458e+01 5.0149632184958051e+01 3.4461705721220618e+01 -1 0 0
1087 336 13 -8.3399999999999996e-01 3.8789763499554560e+01 4.9999544811634223e+01 3.5316548814985012e+01 -1 0 0
487 136 13 -8.3399999999999996e-01 4.3933219708119864e+01 4.9603054488856081e+01 3.4171920190249608e+01 0 1 1
961 294 13 -8.3399999999999996e-01 4.1604953121312569e+01 5.0944708562642262e+01 3.4979480216485811e+01 1 0 0
1921 614 13 -8.3399999999999996e-01 5.0505438172345492e+01 4.5812137618080349e+01 3.2027005569904858e+01 1 1 2
1551 490 14 4.1699999999999998e-01 4.2075127962352582e+01 4.8267418714337943e+01 3.0641171758678585e+01 1 1 0
1916 612 14 4.1699999999999998e-01 4.5050160789386780e+01 4.1720494245381701e+01 3.0940732168348745e+01 2 1 0
1249 390 13 -8.3399999999999996e-01 4.2052234204132681e+01 5.2907452723531392e+01 3.2880763600165324e+01 2 -1 1
1250 390 14 4.1699999999999998e-01 4.2105975534273497e+01 5.3676378715975730e+01 3.3448299419145364e+01 2 -1 1
1083 334 14 4.1699999999999998e-01 4.9902673781666287e+01 4.6284875257199232e+01 3.5083765592428797e+01 -1 1 0
489 136 14 4.1699999999999998e-01 4.3858497681339372e+01 4.8879023360024775e+01 3.3550287092999028e+01 0 1 1
488 136 14 4.1699999999999998e-01 4.3040769866046666e+01 4.9938132224198533e+01 3.4258457910473972e+01 0 1 1
1713 544 14 4.1699999999999998e-01 4.4868841977709820e+01 5.0468248975726112e+01 3.1167961257287786e+01 0 0 1
1760 560 14 4.1699999999999998e-01 4.0913768960908470e+01 4.4149097198326018e+01 3.3819513911680495e+01 -1 1 1
219 46 14 4.1699999999999998e-01 3.8437505328051131e+01 4.1993900940507373e+01 3.0787408204233749e+01 1 1 1
1753 558 13 -8.3399999999999996e-01 4.9688834687454111e+01 4.8606770604784948e+01 3.0621551379287450e+01 1 3 -1
1105 342 13 -8.3399999999999996e-01 4.6701842262421245e+01 5.2893205699501550e+01 3.0730935857361825e+01 0 0 0
1401 440 14 4.1699999999999998e-01 4.2216739335994795e+01 4.3772536800644986e+01 2.9970384019160402e+01 1 1 1
453 124 14 4.1699999999999998e-01 3.7574851442738918e+01 5.1645359694740698e+01 3.3010939252225455e+01 -1 0 1
1454 458 14 4.1699999999999998e-01 4.8301595176637306e+01 5.2241997555679518e+01 3.1625675763756366e+01 0 0 0
732 217 14 4.1699999999999998e-01 4.0532159453735424e+01 4.3263062234778545e+01 3.1408372161092792e+01 1 2 -1
1997 639 14 4.1699999999999998e-01 3.8351761868101718e+01 5.3502638795562071e+01 3.1745820151564306e+01 1 0 0
590 170 14 4.1699999999999998e-01 4.7052963796252044e+01 4.7552139797752695e+01 3.0827126213015838e+01 1 0 0
1712 544 14 4.1699999999999998e-01 4.4874869125588489e+01 5.0369459867482298e+01 3.2678623624436447e+01 0 0 1
1453 458 13 -8.3399999999999996e-01 4.9048798665387608e+01 5.2062282889819805e+01 3.2196310191830399e+01 0 0 0
156 25 14 4.1699999999999998e-01 4.6851861647006785e+01 4.5165298400232857e+01 3.6392252806433675e+01 -1 0 1
16 1 8 -1.1500000000000000e-01 3.8786609901785305e+01 5.3545496750463556e+01 3.6353611966667742e+01 0 0 0
1455 458 14 4.1699999999999998e-01 4.8673218016058684e+01 5.1598201408527039e+01 3.2944508085718915e+01 0 0 0
129 16 14 4.1699999999999998e-01 4.8327166687232683e+01 4.9031308943118184e+01 3.2400677180593661e+01 1 0 1
936 285 14 4.1699999999999998e-01 4.6509389521375581e+01 4.2993348675778876e+01 3.5968101869732941e+01 0 1 1
1107 342 14 4.1699999999999998e-01 4.6099791173849404e+01 5.2248083070023760e+01 3.1101862112647417e+01 0 0 0
1310 410 14 4.1699999999999998e-01 4.2219259532340686e+01 5.2865481942595792e+01 3.1141082281970981e+01 0 0 0
155 25 14 4.1699999999999998e-01 4.7084796156155797e+01 4.6199990232974343e+01 3.5311951686692588e+01 -1 0 1
1439 453 14 4.1699999999999998e-01 4.9759778859583328e+01 4.1784696860197514e+01 3.4190047083800877e+01 -1 0 0
1746 555 14 4.1699999999999998e-01 5.0002194300504186e+01 4.9425027332051187e+01 3.6457939571668270e+01 -1 2 -1
1070 330 14 4.1699999999999998e-01 4.5665408392710901e+01 5.2276240256603067e+01 3.6558973931145182e+01 1 1 0
1755 558 14 4.1699999999999998e-01 4.9408461115921668e+01 4.8179841066681412e+01 2.9812011615962977e+01 1 3 -1
61 1 11 1.1500000000000000e-01 3.7993824938303810e+01 4.6967135395017124e+01 4.1037756694344495e+01 0 0 0
1108 343 13 -8.3399999999999996e-01 4.8318679949183313e+01 5.0220823095044715e+01 3.7160825056935209e+01 1 -1 1
1681 534 13 -8.3399999999999996e-01 3.9559765662160125e+01 4.4039329179552297e+01 4.0704171435724007e+01 0 1 -1
1071 330 14 4.1699999999999998e-01 4.4535800821117775e+01 5.3011079815906612e+01 3.7248824097673008e+01 1 1 0
50 1 8 -1.1500000000000000e-01 3.9223866718242419e+01 4.8508302770438945e+01 4.1965921673484679e+01 0 0 0
1682 534 14 4.1699999999999998e-01 4.0075083921045049e+01 4.3235642162018223e+01 4.0773211685660861e+01 0 1 -1
1942 621 13 -8.3399999999999996e-01 4.1822234262411428e+01 4.5859549025299529e+01 4.2443249482518652e+01 -1 0 0
1943 621 14 4.1699999999999998e-01 4.0976470831255483e+01 4.6288626764712859e+01 4.2572902533061878e+01 -1 0 0
1718 546 14 4.1699999999999998e-01 4.1902262583662392e+01 4.1762310781566356e+01 3.9844285371660327e+01 2 -1 -1
1944 621 14 4.1699999999999998e-01 4.2467777010113558e+01 4.6523087044362960e+01 4.2686616300212400e+01 -1 0 0
600 173 14 4.1699999999999998e-01 4.0601059849188943e+01 4.1339064822728851e+01 4.2177744960813953e+01 -1 -2 -1
887 269 14 4.1699999999999998e-01 3.7014646414303847e+01 4.3269375479955151e+01 4.2476465044670761e+01 1 1 1
512 144 14 4.1699999999999998e-01 4.1845673807807231e+01 4.4515880257268748e+01 3.8804643251090440e+01 1 0 1
1725 548 14 4.1699999999999998e-01 3.7499436933249953e+01 4.5405270797444473e+01 3.8139938583170803e+01 0 0 -1
1114 345 13 -8.3399999999999996e-01 4.8923591050829700e+01 4.1459829560107472e+01 4.0968777441332847e+01 -1 0 0
1683 534 14 4.1699999999999998e-01 4.0147237990911279e+01 4.4665491153758602e+01 4.0281052233255735e+01 0 1 -1
59 1 11 1.1500000000000000e-01 3.9015363163451745e+01 4.9213276561502198e+01 4.1174758911635877e+01 0 0 0
888 269 14 4.1699999999999998e-01 3.7891542697455705e+01 4.3656738166672234e+01 4.1304756943476733e+01 1 1 1
1776 565 14 4.1699999999999998e-01 4.3111798844011084e+01 5.3730696526008728e+01 4.2487218802103605e+01 0 -3 0
14 1 8 -1.1500000000000000e-01 3.8600322855997355e+01 5.2913231220043421e+01 3.7521000552793133e+01 0 0 0
890 270 14 4.1699999999999998e-01 4.3790262121228913e+01 4.8218459760371239e+01 3.8100566816533622e+01 1 0 1
985 302 13 -8.3399999999999996e-01 4.3508381271688975e+01 4.3917339134087918e+01 3.7212916642533656e+01 1 0 0
121 14 13 -8.3399999999999996e-01 3.8508047434624629e+01 4.2342639514995582e+01 3.6719366760496811e+01 1 1 0
1571 497 14 4.1699999999999998e-01 4.2955213128478846e+01 4.4706085718240857e+01 4.1517750594458647e+01 3 -1 1
252 57 14 4.1699999999999998e-01 4.4046879840002639e+01 4.1257860384532158e+01 3.9799446477031687e+01 0 1 -1
532 151 13 -8.3399999999999996e-01 4.7274883202912697e+01 5.3423553189853600e+01 3.8820024047766076e+01 1 1 0
1048 323 13 -8.3399999999999996e-01 3.9573966927288595e+01 4.7859001749909076e+01 3.8670416814358298e+01 0 -1 -1
1723 548 13 -8.3399999999999996e-01 3.8026548144330945e+01 4.4856912047085316e+01 3.7558828110211564e+01 0 0 -1
285 68 14 4.1699999999999998e-01 4.8845557077471774e+01 5.3392249989730566e+01 3.7675715190891609e+01 -1 1 1
1049 323 14 4.1699999999999998e-01 3.9910433073896620e+01 4.7385270139776523e+01 3.9431075107574109e+01 0 -1 -1
889 270 13 -8.3399999999999996e-01 4.4534889494586764e+01 4.7983459568160391e+01 3.7546908540049017e+01 1 0 1
1006 309 13 -8.3399999999999996e-01 4.8080920720345524e+01 5.3833326895513252e+01 4.1904575426210947e+01 1 -3 -1
301 74 13 -8.3399999999999996e-01 4.2425983303829639e+01 4.7708903227031570e+01 3.9784238800717887e+01 -1 1 0
11 1 7 -1.7999999999999999e-01 3.7393025699701951e+01 5.2620361418979755e+01 3.9749065197663171e+01 0 0 0
1774 565 13 -8.3399999999999996e-01 4.2783112585553127e+01 5.4388479801073807e+01 4.3100015464925420e+01 0 -3 0
22 1 4 8.9999999999999997e-02 3.8394419685874880e+01 5.2527493352336606e+01 4.0221195121770009e+01 0 0 0
1607 509 14 4.1699999999999998e-01 4.6734228949401384e+01 4.3220842769133775e+01 3.8760566125126843e+01 1 1 -1
716 212 14 4.1699999999999998e-01 4.8120757201883585e+01 4.8535260602507776e+01 3.7964327489207911e+01 1 0 1
715 212 13 -8.3399999999999996e-01 4.7746723203444482e+01 4.7703423594625363e+01 3.8254808288735902e+01 1 0 1
1570 497 13 -8.3399999999999996e-01 4.3441802235306817e+01 4.3995694562514316e+01 4.1099650192198773e+01 3 -1 1
1572 497 14 4.1699999999999998e-01 4.3948795426028184e+01 4.4425132817081895e+01 4.0410612385857632e+01 3 -1 1
1673 531 14 4.1699999999999998e-01 4.0691960538709054e+01 4.8303019653641101e+01 3.7053682086845853e+01 1 1 2
1878 599 14 4.1699999999999998e-01 4.4356804240991309e+01 4.3104837085773362e+01 4.2759753320961153e+01 0 2 -1
1608 509 14 4.1699999999999998e-01 4.6257996366543736e+01 4.4270128681563939e+01 3.9742450658569901e+01 1 1 -1
1606 509 13 -8.3399999999999996e-01 4.6846166271078530e+01 4.3519123866895271e+01 3.9663191596575480e+01 1 1 -1
614 178 14 4.1699999999999998e-01 4.4409350524223484e+01 4.4961073716671493e+01 3.8444613546592045e+01 0 -2 -2
615 178 14 4.1699999999999998e-01 4.4915157743134650e+01 4.6315050206914499e+01 3.8894949427706202e+01 0 -2 -2
613 178 13 -8.3399999999999996e-01 4.4697810125429775e+01 4.5441579374669331e+01 3.9220588960071041e+01 0 -2 -2
717 212 14 4.1699999999999998e-01 4.7421991289586877e+01 4.7293350683044380e+01 3.7453170007622639e+01 1 0 1
891 270 14 4.1699999999999998e-01 4.4148591057077617e+01 4.7798953801926956e+01 3.6690775757697168e+01 1 0 1
513 144 14 4.1699999999999998e-01 4.0981553896821140e+01 4.5662507030096222e+01 3.8324601962822712e+01 1 0 1
935 285 14 4.1699999999999998e-01 4.7574442947694301e+01 4.2804539366036586e+01 3.7027303761881591e+01 0 1 1
511 144 13 -8.3399999999999996e-01 4.1269128824964874e+01 4.5212354186117494e+01 3.9118892725302587e+01 1 0 1
148 23 13 -8.3399999999999996e-01 4.2869570881854251e+01 5.2641884413840025e+01 3.7359338014586214e+01 0 0 0
934 285 13 -8.3399999999999996e-01 4.6826341976364610e+01 4.3354962248236376e+01 3.6795757649768241e+01 0 1 1
372 97 14 4.1699999999999998e-01 4.8630549620833698e+01 4.8390490485475631e+01 4.1303482472192165e+01 0 -2 0
48 1 8 -1.1500000000000000e-01 4.0067813273401612e+01 4.8809503442329643e+01 4.3039222356449123e+01 0 0 0
1949 623 14 4.1699999999999998e-01 4.4515228935954745e+01 4.8018938655428371e+01 4.2763473528475920e+01 0 0 -2
858 259 14 4.1699999999999998e-01 4.8389124714104000e+01 4.5303781704342377e+01 4.3065438541751774e+01 0 0 -1
149 23 14 4.1699999999999998e-01 4.2851960020292680e+01 5.1958112595124298e+01 3.8028948559938911e+01 0 0 0
893 271 14 4.1699999999999998e-01 4.1891372612202822e+01 5.1301456580022084e+01 4.2747673517438784e+01 0 1 0
370 97 13 -8.3399999999999996e-01 4.7756749749981850e+01 4.8754796842848322e+01 4.1162101528117660e+01 0 -2 0
24 1 11 1.1500000000000000e-01 3.9085612181158815e+01 5.1962857318817825e+01 3.7687384838603599e+01 0 0 0
892 271 13 -8.3399999999999996e-01 4.2703361750843342e+01 5.0817289743754628e+01 4.2597709139554489e+01 0 1 0
789 236 14 4.1699999999999998e-01 3.8873344334571001e+01 4.1183464927086057e+01 3.8005361143079242e+01 1 2 1
264 61 14 4.1699999999999998e-01 4.5357766987522673e+01 5.4497054458853313e+01 4.3096180563935697e+01 0 0 -2
665 195 14 4.1699999999999998e-01 4.3299763945308378e+01 5.1077209374266815e+01 4.0317328251436798e+01 -1 -1 1
894 271 14 4.1699999999999998e-01 4.3328161418766754e+01 5.1199872600383877e+01 4.3213735952988998e+01 0 1 0
886 269 13 -8.3399999999999996e-01 3.7029593915967467e+01 4.3300364865177620e+01 4.1519882990295962e+01 1 1 1
664 195 13 -8.3399999999999996e-01 4.2768399960967976e+01 5.1006917475170994e+01 3.9524268462622906e+01 -1 -1 1
122 14 14 4.1699999999999998e-01 3.8618848529734933e+01 4.3214761085808242e+01 3.7097999716701501e+01 1 1 0
172 31 13 -8.3399999999999996e-01 4.0052462886676899e+01 5.2278584789113225e+01 4.3045148561764563e+01 1 1 0
1326 415 14 4.1699999999999998e-01 3.6872853573662354e+01 4.1547514967400645e+01 4.0626717522926192e+01 1 0 0
1110 343 14 4.1699999999999998e-01 4.8623421374434734e+01 5.1117822803303014e+01 3.7023871724153075e+01 1 -1 1
20 1 4 8.9999999999999997e-02 3.7600348395735793e+01 5.0629982218038627e+01 3.8825647091396753e+01 0 0 0
1948 623 13 -8.3399999999999996e-01 4.3560017662190809e+01 4.8029074491439900e+01 4.2702617126627814e+01 0 0 -2
1050 323 14 4.1699999999999998e-01 3.8656898565383074e+01 4.7591987064602201e+01 3.8607778758166297e+01 0 -1 -1
1950 623 14 4.1699999999999998e-01 4.3332933469929543e+01 4.8957277535093439e+01 4.2646881428464802e+01 0 0 -2
666 195 14 4.1699999999999998e-01 4.2155839170226137e+01 5.0294748063129603e+01 3.9708160044011748e+01 -1 -1 1
1069 330 13 -8.3399999999999996e-01 4.5416093383893191e+01 5.3137262222291561e+01 3.6894707297651237e+01 1 1 0
173 31 14 4.1699999999999998e-01 4.0037004407238733e+01 5.3184085212565449e+01 4.2735208868697242e+01 1 1 0
51 1 8 -1.1500000000000000e-01 3.8725741281365167e+01 4.6342069645932312e+01 4.2956957140077670e+01 0 0 0
12 1 8 0.0000000000000000e+00 3.7727237580930272e+01 5.3417310684892541e+01 3.8477833875458252e+01 0 0 0
150 23 14 4.1699999999999998e-01 4.2156335503591620e+01 5.3232786629327116e+01 3.7600920470400325e+01 0 0 0
1724 548 14 4.1699999999999998e-01 3.8713900257534682e+01 4.5440042291035823e+01 3.7236741332926130e+01 0 0 -1
856 259 13 -8.3399999999999996e-01 4.9259798013325941e+01 4.5088493252340079e+01 4.3399821564318188e+01 0 0 -1
1719 546 14 4.1699999999999998e-01 4.2270464053987531e+01 4.2529705400119532e+01 4.1096255483228092e+01 2 -1 -1
303 74 14 4.1699999999999998e-01 4.2333991765096755e+01 4.6756134508614721e+01 3.9785761480369764e+01 -1 1 0
1535 485 14 4.1699999999999998e-01 4.9676336736401346e+01 5.0123004771476019e+01 3.8707713322510976e+01 2 2 2
649 190 13 -8.3399999999999996e-01 4.7658862464546992e+01 5.1421938097413374e+01 4.0553428857193332e+01 1 0 0
386 102 14 4.1699999999999998e-01 4.7968725473003701e+01 4.5069826518892739e+01 4.0249196795398447e+01 0 2 0
1007 309 14 4.1699999999999998e-01 4.8673929970866624e+01 5.4525478334756166e+01 4.1612173193155783e+01 1 -3 -1
533 151 14 4.1699999999999998e-01 4.6798877398001622e+01 5.3100004253365476e+01 3.8055192190370782e+01 1 1 0
1536 485 14 4.1699999999999998e-01 4.9801437270503790e+01 5.0670335468667290e+01 4.0113656117971580e+01 2 2 2
371 97 14 4.1699999999999998e-01 4.7541309482418846e+01 4.8518478429181634e+01 4.0259897042535904e+01 0 -2 0
385 102 13 -8.3399999999999996e-01 4.8465853821217664e+01 4.5887338318659573e+01 4.0221427808631823e+01 0 2 0
174 31 14 4.1699999999999998e-01 3.9130347157847766e+01 5.2027401039599184e+01 4.3098457834404414e+01 1 1 0
770 230 14 4.1699999999999998e-01 4.6798141424615622e+01 4.8289454838686602e+01 4.2778407499155811e+01 -1 1 -1
283 68 13 -8.3399999999999996e-01 4.9641500365287762e+01 5.3052793827119480e+01 3.7266476068253979e+01 -1 1 1
1475 465 14 4.1699999999999998e-01 4.0319020516173261e+01 5.3580551383259234e+01 3.9226814613776860e+01 1 0 1
1474 465 13 -8.3399999999999996e-01 4.1195634224441164e+01 5.3963969156468266e+01 3.9199026607373582e+01 1 0 1
1115 345 14 4.1699999999999998e-01 4.8144729156537188e+01 4.1949260035942778e+01 4.0704079753710424e+01 -1 0 0
534 151 14 4.1699999999999998e-01 4.7350475435245158e+01 5.2662297937994424e+01 3.9395360027792314e+01 1 1 0
650 190 14 4.1699999999999998e-01 4.7773371060930842e+01 5.0641562389885337e+01 4.1095770033005728e+01 1 0 0
1008 309 14 4.1699999999999998e-01 4.7262922932164798e+01 5.4287573630982322e+01 4.2106496755804258e+01 1 -3 -1
1717 546 13 -8.3399999999999996e-01 4.1518073503627988e+01 4.2221432028040027e+01 4.0591171842551290e+01 2 -1 -1
735 218 14 4.1699999999999998e-01 4.2869918016151210e+01 5.3493518798436419e+01 4.0440499502129633e+01 -2 0 0
302 74 14 4.1699999999999998e-01 4.2889589481398161e+01 4.7906544479995226e+01 4.0598019847644380e+01 -1 1 0
733 218 13 -8.3399999999999996e-01 4.3796523199948744e+01 5.3512523928410779e+01 4.0679820523456925e+01 -2 0 0
651 190 14 4.1699999999999998e-01 4.8031840625964655e+01 5.2133082652764713e+01 4.1074383397792374e+01 1 0 0
387 102 14 4.1699999999999998e-01 4.8060369411494555e+01 4.6390929534576486e+01 3.9515585967242544e+01 0 2 0
251 57 14 4.1699999999999998e-01 4.4350748424805275e+01 4.2363202342547460e+01 4.0788273349352714e+01 0 1 -1
1045 322 13 -8.3399999999999996e-01 5.0403306443595611e+01 4.8090160268351582e+01 4.1639064685532183e+01 -1 0 -2
52 1 8 -1.1500000000000000e-01 3.8607518515878837e+01 4.7192332140972979e+01 4.1897446533634273e+01 0 0 0
359 93 14 4.1699999999999998e-01 4.5383391676924106e+01 4.9420516090689915e+01 3.6697663833430376e+01 -1 0 -1
233 51 14 4.1699999999999998e-01 4.8964330020921508e+01 4.2154347768103001e+01 4.2714309716067760e+01 -1 0 1
60 1 11 1.1500000000000000e-01 3.8164355617886621e+01 4.5420716894192765e+01 4.3005488651808562e+01 0 0 0
668 196 14 4.1699999999999998e-01 4.9933182668532964e+01 4.5697929588416933e+01 3.9248507700598857e+01 -1 0 -1
1534 485 13 -8.3399999999999996e-01 5.0132755793874033e+01 4.9981781718090609e+01 3.9537153382478536e+01 2 2 2
250 57 13 -8.3399999999999996e-01 4.4525812109652065e+01 4.1439564756776704e+01 4.0608051367904217e+01 0 1 -1
13 1 8 -1.1500000000000000e-01 3.7020877832171202e+01 5.4567633349771150e+01 3.8223578595484817e+01 0 0 0
1876 599 13 -8.3399999999999996e-01 4.5068465330582200e+01 4.2750571632337362e+01 4.3292919878680813e+01 0 2 -1
57 1 11 1.1500000000000000e-01 4.0713440119769828e+01 4.9672194781679444e+01 4.3112229757958282e+01 0 0 0
610 177 13 -8.3399999999999996e-01 5.0445763710448198e+01 4.3459843206326489e+01 3.7330763355534302e+01 -2 1 0
834 251 14 4.1699999999999998e-01 4.8531425102424095e+01 5.3122669182850878e+01 4.3406084775566931e+01 1 0 0
1109 343 14 4.1699999999999998e-01 4.7429087437785320e+01 5.0213018320971528e+01 3.6807559380373782e+01 1 -1 1
734 218 14 4.1699999999999998e-01 4.4245835935492721e+01 5.3781739154468575e+01 3.9878650259345598e+01 -2 0 0
1877 599 14 4.1699999999999998e-01 4.5234055409369248e+01 4.1882231803297280e+01 4.2925771608785531e+01 0 2 -1
986 302 14 4.1699999999999998e-01 4.3708708999444802e+01 4.3000640520623591e+01 3.7023799844213016e+01 1 0 0
1046 322 14 4.1699999999999998e-01 5.0520291069352758e+01 4.7462328973430353e+01 4.0926059370888488e+01 -1 0 -2
857 259 14 4.1699999999999998e-01 4.9734853864644180e+01 4.5919354163684616e+01 4.3384780468809261e+01 0 0 -1
284 68 14 4.1699999999999998e-01 4.9890236623248050e+01 5.3724629185798470e+01 3.6631653584203363e+01 -1 1 1
987 302 14 4.1699999999999998e-01 4.2687554491960576e+01 4.4084133663348943e+01 3.6749607518569256e+01 1 0 0
1165 362 13 -8.3399999999999996e-01 4.9201593585363383e+01 4.5167082841382964e+01 4.9246604762957034e+01 0 1 1
1370 430 14 4.1699999999999998e-01 4.8138069325798391e+01 4.8327405843418859e+01 4.9491575762327344e+01 0 1 -1
58 1 11 1.1500000000000000e-01 3.9559380874321725e+01 4.5970701399256903e+01 4.4849271312358596e+01 0 0 0
49 1 8 -1.1500000000000000e-01 3.9426849138988977e+01 4.6698307109026878e+01 4.4062235403583287e+01 0 0 0
55 1 4 8.9999999999999997e-02 4.1498058125768921e+01 4.7274613448570733e+01 4.5595173764673049e+01 0 0 0