LAMMPS data file via write_data, version 11 May 2018, timestep = 1000000

2004 atoms
14 atom types
1365 bonds
18 bond types
786 angles
31 angle types
207 dihedrals
21 dihedral types
12 impropers
2 improper types

3.6840193999999997e+01 6.4211560000000006e+01 xlo xhi
4.1013691000000001e+01 6.8385058000000001e+01 ylo yhi
2.9768094999999999e+01 5.7139462000000002e+01 zlo zhi

Masses

1 12.011
2 12.011
3 15.999
4 1.008
5 14.007
6 12.011
7 12.011
8 12.011
9 15.999
10 1.008
11 1.008
12 32.066
13 16
14 1.01

Pair Coeffs # lj/charmm/coul/long

1 0.11 3.56359 0.11 3.56359
2 0.08 3.6705 0.01 3.38542
3 0.12 3.02906 0.12 2.49452
4 0.022 2.35197 0.022 2.35197
5 0.2 3.29632 0.2 2.76179
6 0.02 4.05359 0.01 3.38542
7 0.055 3.87541 0.01 3.38542
8 0.07 3.55005 0.07 3.55005
9 0.1521 3.15378 0.1521 3.15378
10 0.046 0.400014 0.046 0.400014
11 0.03 2.42004 0.03 2.42004
12 0.45 3.56359 0.45 3.56359
13 0.1521 3.15057 0.1521 3.15057
14 0.046 0.400014 0.046 0.400014

Bond Coeffs # harmonic

1 250 1.49
2 620 1.23
3 370 1.345
4 322 1.111
5 320 1.43
6 440 0.997
7 222.5 1.538
8 330 1.08
9 230 1.49
10 309 1.111
11 305 1.375
12 340 1.08
13 334.3 1.411
14 545 0.96
15 222.5 1.53
16 198 1.818
17 240 1.816
18 450 0.9572

Angle Coeffs # charmm

1 33 109.5 30 2.163
2 50 120 0 0
3 34 123 0 0
4 80 121 0 0
5 80 116.5 0 0
6 80 122.5 0 0
7 35.5 108.4 5.4 1.802
8 50 107 0 0
9 70 113.5 0 0
10 48 108 0 0
11 35 117 0 0
12 51.8 107.5 0 0
13 33.43 110.1 22.53 2.179
14 52 108 0 0
15 50 109.5 0 0
16 35 111 0 0
17 45.8 122.3 0 0
18 49.3 107.5 0 0
19 40 120 35 2.4162
20 30 120 22 2.1525
21 45.2 120 0 0
22 65 108 0 0
23 35.5 109 5.4 1.802
24 36 115 0 0
25 58.35 113.5 11.16 2.561
26 58 114.5 0 0
27 26.5 110.1 22.53 2.179
28 34 95 0 0
29 46.1 111.3 0 0
30 51.5 109.5 0 0
31 55 104.52 0 0

Dihedral Coeffs # charmm

1 0.2 1 180 1
2 1.8 1 0 1
3 0 1 0 1
4 1.6 1 0 0.5
5 2.5 2 180 0.5
6 2.5 2 180 1
7 0.6 1 0 1
8 0.2 3 0 1
9 0.23 2 180 1
10 0.04 3 0 1
11 1.4 1 0 1
12 3.1 2 180 1
13 4.2 2 180 1
14 3.1 2 180 0.5
15 0.99 2 180 1
16 2.4 2 180 1
17 0.195 3 0 1
18 0.24 1 180 0.5
19 0.37 3 0 0.5
20 0.28 3 0 1
21 0.01 3 0 1

Improper Coeffs # harmonic

1 120 0
2 20 0

Atoms # full

229 50 13 -8.3399999999999996e-01 3.8647221371249451e+01 4.7011612831175242e+01 3.1731164598899003e+01 1 3 -2
1731 550 14 4.1699999999999998e-01 3.9578365257676062e+01 4.3805216075485880e+01 3.4550847407963765e+01 -1 0 2
1563 494 14 4.1699999999999998e-01 4.1375997877466830e+01 4.5354416730647834e+01 3.2141099580762848e+01 2 -4 2
152 24 14 4.1699999999999998e-01 4.1206546162942892e+01 4.2560955674439114e+01 3.5194051867812362e+01 1 0 4
1729 550 13 -8.3399999999999996e-01 4.0358488124051050e+01 4.4176647057379128e+01 3.4962774063396701e+01 -1 0 2
1447 456 13 -8.3399999999999996e-01 3.8305210782933912e+01 4.3205767953360031e+01 3.1185207684926759e+01 3 1 0
1730 550 14 4.1699999999999998e-01 4.0702036671695211e+01 4.4791942837392817e+01 3.4314991848206354e+01 -1 0 2
1449 456 14 4.1699999999999998e-01 3.9148284159475843e+01 4.2757298789988212e+01 3.1251054295369237e+01 3 1 0
1561 494 13 -8.3399999999999996e-01 4.0775974762855562e+01 4.5748535381303256e+01 3.2774246897571473e+01 2 -4 2
1768 563 13 -8.3399999999999996e-01 4.2805277217223804e+01 4.4652603362503086e+01 3.1413322403150566e+01 0 0 0
1769 563 14 4.1699999999999998e-01 4.2661201024583114e+01 4.4019317936237073e+01 3.0710169371978107e+01 0 0 0
1562 494 14 4.1699999999999998e-01 4.0056808014949588e+01 4.6090129871726276e+01 3.2242884909700393e+01 2 -4 2
1448 456 14 4.1699999999999998e-01 3.8149089475123795e+01 4.3553417156743279e+01 3.2063273497022017e+01 3 1 0
1689 536 14 4.1699999999999998e-01 4.0678482155383051e+01 4.1784840482761695e+01 3.0407710680282939e+01 -3 1 3
304 75 13 -8.3399999999999996e-01 3.7808310812312698e+01 4.3447889847404447e+01 3.3862815917507817e+01 1 0 -3
1826 582 14 4.1699999999999998e-01 4.3196966586330404e+01 4.6248798631197538e+01 3.5940097487550808e+01 -1 3 1
690 203 14 4.1699999999999998e-01 4.3077404117347363e+01 4.2663548763941108e+01 3.5600188197428103e+01 2 3 3
1648 523 13 -8.3399999999999996e-01 3.6858626398875657e+01 4.5803570721830603e+01 3.4930417207678595e+01 3 -1 3
1687 536 13 -8.3399999999999996e-01 4.0685347323445512e+01 4.1540351617262424e+01 3.1333135347015496e+01 -3 1 3
675 198 14 4.1699999999999998e-01 4.0932071289834553e+01 4.7554732021340065e+01 3.4183605788299026e+01 2 -2 -2
1825 582 13 -8.3399999999999996e-01 4.2894985617103401e+01 4.7002539934276932e+01 3.6446964315647008e+01 -1 3 1
231 50 14 4.1699999999999998e-01 3.8125924167906881e+01 4.7253210954046033e+01 3.2496743841784003e+01 1 3 -2
674 198 14 4.1699999999999998e-01 4.1645650440469893e+01 4.8009699034925447e+01 3.5438876645385619e+01 2 -2 -2
1827 582 14 4.1699999999999998e-01 4.3646236876444782e+01 4.7595402624709031e+01 3.6466128480482311e+01 -1 3 1
1819 580 13 -8.3399999999999996e-01 3.7249175571095563e+01 5.2244008746754155e+01 4.3019272483741865e+01 0 -2 -1
680 200 14 4.1699999999999998e-01 4.4665139938797296e+01 5.0032341535840658e+01 4.2479353578264316e+01 -2 1 4
151 24 13 -8.3399999999999996e-01 4.1769975957583306e+01 4.1818318452048942e+01 3.4976635212830836e+01 1 0 4
1650 523 14 4.1699999999999998e-01 3.7071683331716713e+01 4.6720148324877087e+01 3.4755125782297213e+01 3 -1 3
1688 536 14 4.1699999999999998e-01 4.1569675059374283e+01 4.1207886111481393e+01 3.1486966964267268e+01 -3 1 3
230 50 14 4.1699999999999998e-01 3.8611226016175749e+01 4.7781568424669167e+01 3.1163621362779814e+01 1 3 -2
1308 409 14 4.1699999999999998e-01 4.6523656157686396e+01 4.8935523596916241e+01 4.3273811235588596e+01 -1 -4 2
598 173 13 -8.3399999999999996e-01 4.9173500299977761e+01 5.2838732967366830e+01 4.1717837669194822e+01 -4 -2 0
1508 476 14 4.1699999999999998e-01 3.8184411066703042e+01 4.1202584040634910e+01 3.8631237443698318e+01 -2 0 0
153 24 14 4.1699999999999998e-01 4.1913072376489460e+01 4.1893763058560481e+01 3.4033203054738358e+01 1 0 4
1372 431 13 -8.3399999999999996e-01 3.7307196217262856e+01 4.1096933629254622e+01 3.5221432821226983e+01 4 -2 1
840 253 14 4.1699999999999998e-01 3.7693526871763275e+01 4.8750634975052719e+01 4.2773405200522681e+01 0 0 3
1174 365 13 -8.3399999999999996e-01 3.7232697190410640e+01 4.8316639396023895e+01 3.4062548165593597e+01 1 -3 4
489 136 14 4.1699999999999998e-01 4.3128279768148118e+01 4.5020017915788358e+01 3.3460159702383955e+01 2 3 2
1770 563 14 4.1699999999999998e-01 4.3538174835853781e+01 4.5187386681231303e+01 3.1108198850056318e+01 0 0 0
689 203 14 4.1699999999999998e-01 4.3763241254516224e+01 4.3953570224306063e+01 3.5203492725694765e+01 2 3 3
487 136 13 -8.3399999999999996e-01 4.3632412914277218e+01 4.5350168560661558e+01 3.4203855030295863e+01 2 3 2
688 203 13 -8.3399999999999996e-01 4.3796231131588037e+01 4.3245535179432018e+01 3.5846789823148789e+01 2 3 3
488 136 14 4.1699999999999998e-01 4.4184377293469069e+01 4.6038637642155415e+01 3.3832940813613668e+01 2 3 2
970 297 13 -8.3399999999999996e-01 4.5086719521877036e+01 4.6303212114310121e+01 3.1183792028597537e+01 -2 0 -2
1446 455 14 4.1699999999999998e-01 4.6048442075189797e+01 4.2510739027733656e+01 3.2472414294585178e+01 1 -1 1
732 217 14 4.1699999999999998e-01 4.7787808920123169e+01 4.4144901411065320e+01 3.3625581375995601e+01 0 0 -1
526 149 13 -8.3399999999999996e-01 4.6570662123635977e+01 4.2569644191318062e+01 3.6208164215319798e+01 -1 1 0
731 217 14 4.1699999999999998e-01 4.6333895812240868e+01 4.4507803882261513e+01 3.3840833753254962e+01 0 0 -1
527 149 14 4.1699999999999998e-01 4.5626759114480087e+01 4.2661697552494438e+01 3.6337808633753525e+01 -1 1 0
730 217 13 -8.3399999999999996e-01 4.6922559081286110e+01 4.3757567348665795e+01 3.3758050003580102e+01 0 0 -1
643 188 13 -8.3399999999999996e-01 4.6243985678333466e+01 4.6461256297099283e+01 3.3562235952759373e+01 1 1 0
1445 455 14 4.1699999999999998e-01 4.5980572642981542e+01 4.2327605501976173e+01 3.0971164657772576e+01 1 -1 1
1444 455 13 -8.3399999999999996e-01 4.5677005801890616e+01 4.1945861561410211e+01 3.1794785402139784e+01 1 -1 1
528 149 14 4.1699999999999998e-01 4.6727721234904074e+01 4.2919718023704966e+01 3.5331228714976604e+01 -1 1 0
645 188 14 4.1699999999999998e-01 4.5881680018261846e+01 4.6303961267998801e+01 3.2690324136011505e+01 1 1 0
644 188 14 4.1699999999999998e-01 4.7088827976723927e+01 4.6880574987606167e+01 3.3398989089725326e+01 1 1 0
316 79 13 -8.3399999999999996e-01 4.9543755796421316e+01 4.3979990741272758e+01 3.2882242190779138e+01 0 2 4
1416 445 14 4.1699999999999998e-01 3.7354480502473365e+01 4.6216007519923473e+01 4.2071103220384956e+01 2 3 -1
971 297 14 4.1699999999999998e-01 4.4597321380975174e+01 4.7035470316703112e+01 3.0808932148959549e+01 -2 0 -2
1286 402 14 4.1699999999999998e-01 4.9064428328373239e+01 4.2132220101381492e+01 3.2067624410990426e+01 -1 2 1
318 79 14 4.1699999999999998e-01 4.9969435418924952e+01 4.4399472433064631e+01 3.2134535459391842e+01 0 2 4
201 40 14 4.1699999999999998e-01 4.5660089448401536e+01 4.7947165229220616e+01 3.4459475851200985e+01 -2 2 -1
838 253 13 -8.3399999999999996e-01 3.8180364021875455e+01 4.9459435922045607e+01 4.3193908706963889e+01 0 0 3
300 73 14 4.1699999999999998e-01 4.3942830999585517e+01 4.1518593651770878e+01 3.2359713218642803e+01 1 1 1
972 297 14 4.1699999999999998e-01 4.5536779921074633e+01 4.5908056086099236e+01 3.0437111940563735e+01 -2 0 -2
679 200 13 -8.3399999999999996e-01 4.4052428614033190e+01 5.0766716506857954e+01 4.2440483223288638e+01 -2 1 4
1649 523 14 4.1699999999999998e-01 3.7172723252493000e+01 4.5650362501010711e+01 3.5821542385879013e+01 3 -1 3
1624 515 13 -8.3399999999999996e-01 4.7568611520269442e+01 5.4388049751295938e+01 3.8606234971056153e+01 -1 0 0
673 198 13 -8.3399999999999996e-01 4.0943358789334049e+01 4.8254713796424468e+01 3.4836392688565304e+01 2 -2 -2
1735 552 13 -8.3399999999999996e-01 4.2244837277773087e+01 5.2069070622338927e+01 3.5420616724946903e+01 2 1 3
1206 375 14 4.1699999999999998e-01 3.7968995191345023e+01 5.2131463277738604e+01 3.3356292543880635e+01 1 -4 1
1590 503 14 4.1699999999999998e-01 4.1816960649839231e+01 5.1263113335590525e+01 3.3675051296874514e+01 0 0 0
1589 503 14 4.1699999999999998e-01 4.1398972620651527e+01 4.9816186366670046e+01 3.3828620243692491e+01 0 0 0
1588 503 13 -8.3399999999999996e-01 4.1434245396643149e+01 5.0530456425468259e+01 3.3192375973113613e+01 0 0 0
1874 598 14 4.1699999999999998e-01 3.9855619743638243e+01 5.0919698806501174e+01 3.2213682877255046e+01 2 3 1
1873 598 13 -8.3399999999999996e-01 3.8952576499014057e+01 5.1043239440659626e+01 3.1921307261526831e+01 2 3 1
981 300 14 4.1699999999999998e-01 3.8757894852724213e+01 5.2846512111655265e+01 3.1403588521469612e+01 -1 2 2
1875 598 14 4.1699999999999998e-01 3.8742262794612017e+01 5.0239646390032455e+01 3.1445659843827158e+01 2 3 1
1541 487 14 4.1699999999999998e-01 3.9633028836982106e+01 4.9348474275920559e+01 3.5265730988267933e+01 0 -2 1
1540 487 13 -8.3399999999999996e-01 3.8910078400771084e+01 4.9900467135328867e+01 3.5563857844177136e+01 0 -2 1
1205 375 14 4.1699999999999998e-01 3.8056587175022855e+01 5.1466221251351925e+01 3.4713376138440999e+01 1 -4 1
1204 375 13 -8.3399999999999996e-01 3.7811775380298322e+01 5.2287746738132931e+01 3.4287469507689025e+01 1 -4 1
1478 466 14 4.1699999999999998e-01 4.2730655919444800e+01 5.1622609751007090e+01 3.0564088124224927e+01 -1 -3 0
979 300 13 -8.3399999999999996e-01 3.8437679208680102e+01 5.3710213540353088e+01 3.1143366287443708e+01 -1 2 2
1479 466 14 4.1699999999999998e-01 4.2175700199422835e+01 5.0596927590351541e+01 3.1529435191923458e+01 -1 -3 0
1477 466 13 -8.3399999999999996e-01 4.2458214072510692e+01 5.0706796564667414e+01 3.0621498531225630e+01 -1 -3 0
1736 552 14 4.1699999999999998e-01 4.2324085642847621e+01 5.2940302969235283e+01 3.5809083552138937e+01 2 1 3
1737 552 14 4.1699999999999998e-01 4.1517124489262663e+01 5.1662003229649066e+01 3.5890683222646146e+01 2 1 3
1045 322 13 -8.3399999999999996e-01 4.3428237034865958e+01 5.3285813626194845e+01 3.1067387531804009e+01 0 0 -2
1542 487 14 4.1699999999999998e-01 3.9264828145290402e+01 5.0375303947648042e+01 3.6315466090218884e+01 0 -2 1
470 130 14 4.1699999999999998e-01 3.8170060379992066e+01 5.4045735500605815e+01 3.5239282099090531e+01 -1 -2 1
1046 322 14 4.1699999999999998e-01 4.2770514221092313e+01 5.3911897978582374e+01 3.1370133049524686e+01 0 0 -2
1368 429 14 4.1699999999999998e-01 4.3984142673799951e+01 5.1623598814216344e+01 3.4862149106218943e+01 1 3 1
1047 322 14 4.1699999999999998e-01 4.4067104153262122e+01 5.3245924741915523e+01 3.1779070044195311e+01 0 0 -2
1626 515 14 4.1699999999999998e-01 4.6744811571768516e+01 5.4455360130506200e+01 3.8123477118634739e+01 -1 0 0
1175 365 14 4.1699999999999998e-01 3.7772512760048642e+01 4.8955780483654138e+01 3.4527661080867588e+01 1 -3 4
1201 374 13 -8.3399999999999996e-01 3.8704129051516865e+01 4.9189158674259311e+01 3.0063372433388626e+01 -5 2 1
1748 556 14 4.1699999999999998e-01 4.9961801382330954e+01 4.5823620779641544e+01 3.0338060055551775e+01 1 -1 -1
298 73 13 -8.3399999999999996e-01 4.3091495685625368e+01 4.1110488586616043e+01 3.2517546529128445e+01 1 1 1
1470 463 14 4.1699999999999998e-01 4.9464470446606732e+01 4.7435780796636344e+01 3.2538678446431071e+01 -2 2 0
1468 463 13 -8.3399999999999996e-01 4.8664602948025724e+01 4.7716904227012641e+01 3.2982993603772329e+01 -2 2 0
1618 513 13 -8.3399999999999996e-01 4.6792417212577853e+01 5.2306631220598007e+01 3.6135824372409751e+01 1 -1 -1
1317 412 14 4.1699999999999998e-01 5.0040218805858331e+01 5.3061052414398816e+01 3.4523306278868624e+01 1 -1 2
199 40 13 -8.3399999999999996e-01 4.5347267260133222e+01 4.8742331502739830e+01 3.4890852335091132e+01 -2 2 -1
1367 429 14 4.1699999999999998e-01 4.5003978480014730e+01 5.0673157168274969e+01 3.4271818159604372e+01 1 3 1
1366 429 13 -8.3399999999999996e-01 4.4853431549280181e+01 5.1599077159070347e+01 3.4462188632289319e+01 1 3 1
895 272 13 -8.3399999999999996e-01 4.5485501980580189e+01 5.3689835237793119e+01 3.2867115051662303e+01 0 2 0
1734 551 14 4.1699999999999998e-01 4.4002647268296606e+01 4.9532058979832485e+01 3.0368994756283499e+01 1 0 -3
897 272 14 4.1699999999999998e-01 4.5306333236402629e+01 5.3001381416956150e+01 3.3507554487314231e+01 0 2 0
830 250 14 4.1699999999999998e-01 4.8902245690708902e+01 5.0492989548610623e+01 3.1425574613943052e+01 -1 -1 1
1976 632 14 4.1699999999999998e-01 4.6553794080238731e+01 4.9281149217717321e+01 3.1102965023861096e+01 0 0 -1
1977 632 14 4.1699999999999998e-01 4.7766907469474134e+01 4.8936184059066584e+01 3.1940371858113902e+01 0 0 -1
831 250 14 4.1699999999999998e-01 4.9214052098706972e+01 5.1031786595736179e+01 3.2805563243628974e+01 -1 -1 1
890 270 14 4.1699999999999998e-01 4.8147687986496010e+01 5.1922576339437462e+01 3.5027392152613842e+01 4 0 3
1469 463 14 4.1699999999999998e-01 4.8971063815497452e+01 4.8130583365138094e+01 3.3789955692704240e+01 -2 2 0
1975 632 13 -8.3399999999999996e-01 4.7432851466225479e+01 4.9588394552000125e+01 3.1324529890939459e+01 0 0 -1
829 250 13 -8.3399999999999996e-01 4.9570665934462106e+01 5.0967758720933482e+01 3.1919582176251325e+01 -1 -1 1
889 270 13 -8.3399999999999996e-01 4.8804759081607763e+01 5.1466273653707454e+01 3.4501769484166239e+01 4 0 3
891 270 14 4.1699999999999998e-01 4.8792411428856752e+01 5.0567140412286676e+01 3.4829856399330907e+01 4 0 3
1620 513 14 4.1699999999999998e-01 4.6098788936951856e+01 5.2070253612015577e+01 3.5520000329188868e+01 1 -1 -1
790 237 13 -8.3399999999999996e-01 4.9417145578220989e+01 4.8953052607903714e+01 3.5278458751388449e+01 -1 -1 0
200 40 14 4.1699999999999998e-01 4.5742052051305194e+01 4.8713728196842894e+01 3.5762379556312872e+01 -2 2 -1
792 237 14 4.1699999999999998e-01 4.9166684770370935e+01 4.8502891147982602e+01 3.6085216007025473e+01 -1 -1 0
692 204 14 4.1699999999999998e-01 4.7251067223112358e+01 5.3699534291156859e+01 3.0307431342178852e+01 0 -1 3
896 272 14 4.1699999999999998e-01 4.5624858356740006e+01 5.4477000199507906e+01 3.3393597123677310e+01 0 2 0
693 204 14 4.1699999999999998e-01 4.6710847864870821e+01 5.4347266911818757e+01 3.1564610977762371e+01 0 -1 3
1437 452 14 4.1699999999999998e-01 4.9361427289591219e+01 5.0520022328056534e+01 3.9190298651573876e+01 2 0 1
1619 513 14 4.1699999999999998e-01 4.6633813862198402e+01 5.3229743792849497e+01 3.6333158559188512e+01 1 -1 -1
317 79 14 4.1699999999999998e-01 5.0226665370623870e+01 4.3931817632742359e+01 3.3551231141029241e+01 0 2 4
1226 382 14 4.1699999999999998e-01 4.5225528725286452e+01 4.5436846344658989e+01 4.2973418481356937e+01 0 0 -1
1821 580 14 4.1699999999999998e-01 3.7700517179644784e+01 5.3059185223251127e+01 4.2800157598777353e+01 0 -2 -1
1610 510 14 4.1699999999999998e-01 4.8916399073290407e+01 4.8096199979967757e+01 3.8310592251919829e+01 0 -2 0
839 253 14 4.1699999999999998e-01 3.7687847515099506e+01 5.0250855116573057e+01 4.2976387892089811e+01 0 0 3
791 237 14 4.1699999999999998e-01 5.0337264226984530e+01 4.9183066568639390e+01 3.5407720176589692e+01 -1 -1 0
681 200 14 4.1699999999999998e-01 4.3715211751246514e+01 5.0845403221911567e+01 4.3332853716390090e+01 -2 1 4
158 26 14 4.1699999999999998e-01 3.7103246793712742e+01 4.2742819522744846e+01 2.9849207895598695e+01 1 -1 0
134 18 14 4.1699999999999998e-01 4.0380779041911417e+01 4.4365865027238286e+01 3.7001004168233315e+01 1 -1 -1
1123 348 13 -8.3399999999999996e-01 3.8733761037685319e+01 4.2049309344489387e+01 4.0318463231892302e+01 0 1 -2
1124 348 14 4.1699999999999998e-01 3.9634342276509727e+01 4.2353509966049486e+01 4.0430926088985949e+01 0 1 -2
280 67 13 -8.3399999999999996e-01 3.8091339860774291e+01 4.6260744353066663e+01 3.7356443074016298e+01 0 1 -1
281 67 14 4.1699999999999998e-01 3.8779287604046075e+01 4.6925999805029065e+01 3.7376344765332327e+01 0 1 -1
135 18 14 4.1699999999999998e-01 4.0530261012295092e+01 4.5345125688836703e+01 3.8145817945102038e+01 1 -1 -1
1024 315 13 -8.3399999999999996e-01 4.0628956759617303e+01 4.7182558624569459e+01 3.8038315174202133e+01 0 0 0
1170 363 14 4.1699999999999998e-01 3.7678469614607444e+01 4.3613097862062979e+01 3.9526736886962063e+01 1 3 -2
636 185 14 4.1699999999999998e-01 4.0960666139959422e+01 4.3187271312086040e+01 3.9080218285045945e+01 1 -1 -1
634 185 13 -8.3399999999999996e-01 4.1343212269277011e+01 4.2453053701082808e+01 3.9560657087164564e+01 1 -1 -1
925 282 13 -8.3399999999999996e-01 3.9118304402627828e+01 4.5114537741546357e+01 4.1858416519185745e+01 1 -3 0
926 282 14 4.1699999999999998e-01 3.9712343911585855e+01 4.5850285744484239e+01 4.1710007439021624e+01 1 -3 0
133 18 13 -8.3399999999999996e-01 4.0597883956927362e+01 4.4414569150804063e+01 3.7931985360638961e+01 1 -1 -1
1025 315 14 4.1699999999999998e-01 4.0995089475842278e+01 4.7581090386969343e+01 3.8827842567833876e+01 0 0 0
1351 424 13 -8.3399999999999996e-01 4.0560212808303227e+01 4.7462224021345236e+01 4.1544217828838782e+01 0 1 -1
282 67 14 4.1699999999999998e-01 3.8219091071479525e+01 4.5759243564678556e+01 3.8161682055141974e+01 0 1 -1
1169 363 14 4.1699999999999998e-01 3.8307197377273887e+01 4.4786956082212129e+01 4.0246912730862498e+01 1 3 -2
1352 424 14 4.1699999999999998e-01 4.1271463683024599e+01 4.7736268378406592e+01 4.0965206135936327e+01 0 1 -1
1251 390 14 4.1699999999999998e-01 4.3329809592662066e+01 4.7692155804333815e+01 3.9414687813019157e+01 0 -1 1
1026 315 14 4.1699999999999998e-01 4.1371658950259615e+01 4.7111886761592579e+01 3.7438620268319070e+01 0 0 0
927 282 14 4.1699999999999998e-01 3.9165965851342939e+01 4.4953935700938594e+01 4.2800843452740807e+01 1 -3 0
1605 508 14 4.1699999999999998e-01 4.4512806809082278e+01 5.4503661228549134e+01 3.6926855069783215e+01 0 2 -1
683 201 14 4.1699999999999998e-01 4.4019616008467494e+01 5.1155928599522113e+01 3.9343906288300182e+01 0 1 -1
1266 395 14 4.1699999999999998e-01 4.1678315195097980e+01 4.1312946545070979e+01 4.1124188789892798e+01 0 1 -1
1702 541 13 -8.3399999999999996e-01 4.7072157065396738e+01 5.0880296230604429e+01 4.0792037974158099e+01 -1 1 1
940 287 13 -8.3399999999999996e-01 4.5915614078455754e+01 4.8352640220903247e+01 3.7513586662998357e+01 -2 1 -2
1703 541 14 4.1699999999999998e-01 4.6952253317771294e+01 5.1743124608082184e+01 4.1188752885617475e+01 -1 1 1
1306 409 13 -8.3399999999999996e-01 4.6115085838536416e+01 4.8828525059216403e+01 4.2414825320410706e+01 -1 -4 2
1320 413 14 4.1699999999999998e-01 4.3076280932266457e+01 4.3211134876870332e+01 3.9091039873234799e+01 2 -1 0
549 156 14 4.1699999999999998e-01 4.5165935800150017e+01 5.3890597281768265e+01 4.2269627809308858e+01 0 0 -1
477 132 14 4.1699999999999998e-01 4.9444241313974921e+01 4.2901757652401962e+01 4.3307486315612337e+01 -2 1 1
1850 590 14 4.1699999999999998e-01 4.4472859622479945e+01 4.5771541392763233e+01 3.9469968238963958e+01 -2 -3 0
1849 590 13 -8.3399999999999996e-01 4.4879382665612972e+01 4.6636160954225097e+01 3.9528314627032003e+01 -2 -3 0
313 78 13 -8.3399999999999996e-01 4.6142897940090911e+01 4.1707276048691533e+01 4.2485006926626646e+01 0 -1 -1
1385 435 14 4.1699999999999998e-01 4.9669234628517785e+01 4.5951288408428894e+01 3.7326303742064844e+01 0 4 0
1851 590 14 4.1699999999999998e-01 4.5450876524522329e+01 4.6581455970661828e+01 4.0294235562688542e+01 -2 -3 0
1388 436 14 4.1699999999999998e-01 4.7640476462938381e+01 4.2791356320954613e+01 3.7814920493392549e+01 2 0 -1
1384 435 13 -8.3399999999999996e-01 5.0091259689143541e+01 4.5116097577224345e+01 3.7124848543206596e+01 0 4 0
1387 436 13 -8.3399999999999996e-01 4.8219673115841609e+01 4.3183814016865838e+01 3.8468175198311322e+01 2 0 -1
1389 436 14 4.1699999999999998e-01 4.8787153087419675e+01 4.3768257801023410e+01 3.7965556391268407e+01 2 0 -1
1319 413 14 4.1699999999999998e-01 4.3770182656684781e+01 4.3668595347236227e+01 3.7825684069978571e+01 2 -1 0
1212 377 14 4.1699999999999998e-01 4.5293944233663673e+01 4.3507120022377798e+01 3.9902767524664299e+01 1 2 1
1318 413 13 -8.3399999999999996e-01 4.3898876533831952e+01 4.3580694311548832e+01 3.8770111811912514e+01 2 -1 0
1210 377 13 -8.3399999999999996e-01 4.6129928849152066e+01 4.3601980697216248e+01 4.0359238753146599e+01 1 2 1
1211 377 14 4.1699999999999998e-01 4.6785440358537805e+01 4.3322967388228726e+01 3.9719950391081703e+01 1 2 1
1383 434 14 4.1699999999999998e-01 4.6394092777115226e+01 4.5167779844006901e+01 4.1182142085778054e+01 2 0 2
1382 434 14 4.1699999999999998e-01 4.7303394833089932e+01 4.5862348714268876e+01 4.2173423736666194e+01 2 0 2
1381 434 13 -8.3399999999999996e-01 4.6524519273411627e+01 4.6001148355420234e+01 4.1634605733903101e+01 2 0 2
314 78 14 4.1699999999999998e-01 4.6215746939534860e+01 4.2481998061050568e+01 4.1927573549542430e+01 0 -1 -1
573 164 14 4.1699999999999998e-01 4.9750291036933369e+01 4.2553143793099643e+01 3.9551630971398652e+01 -3 1 -1
315 78 14 4.1699999999999998e-01 4.6945343452699930e+01 4.1710774954516303e+01 4.3006831945269681e+01 0 -1 -1
942 287 14 4.1699999999999998e-01 4.5653843900002919e+01 4.7763684415575398e+01 3.8221287488114044e+01 -2 1 -2
756 225 14 4.1699999999999998e-01 4.4555339128123713e+01 4.1629786715782501e+01 4.3433447902016127e+01 0 4 -2
436 119 13 -8.3399999999999996e-01 3.8228531995611135e+01 5.4622766160206666e+01 4.2190787802103998e+01 2 0 0
635 185 14 4.1699999999999998e-01 4.1368658957697875e+01 4.1737646239268230e+01 3.8925218475835379e+01 1 -1 -1
1125 348 14 4.1699999999999998e-01 3.8489082427473150e+01 4.1701498083617331e+01 4.1176013480338234e+01 0 1 -2
1262 394 14 4.1699999999999998e-01 4.7701224391782191e+01 5.1020877006832372e+01 3.0219803053464595e+01 3 0 1
691 204 13 -8.3399999999999996e-01 4.7215422556612168e+01 5.4535030247020032e+01 3.0773167165997144e+01 0 -1 3
571 164 13 -8.3399999999999996e-01 5.0476112793473924e+01 4.2015434773023351e+01 3.9868310160951204e+01 -3 1 -1
1776 565 14 4.1699999999999998e-01 4.1417754804099395e+01 5.4302504085045648e+01 4.2108933889495077e+01 0 -3 1
1249 390 13 -8.3399999999999996e-01 4.2527858833207496e+01 4.8083880077453955e+01 3.9760606166619063e+01 0 -1 1
505 142 13 -8.3399999999999996e-01 4.2650041113878594e+01 5.4302765315200695e+01 3.7335509367826397e+01 3 0 -2
1353 424 14 4.1699999999999998e-01 4.0371211601544822e+01 4.8236018361009165e+01 4.2075021862347455e+01 0 1 -1
1775 565 14 4.1699999999999998e-01 4.1204452594897852e+01 5.3044923576767403e+01 4.2924340818587211e+01 0 -3 1
973 298 13 -8.3399999999999996e-01 3.9709623811878942e+01 5.1922139306857297e+01 3.7308539171071814e+01 0 -2 0
975 298 14 4.1699999999999998e-01 3.8870901324272651e+01 5.2282099867021344e+01 3.7596992478851000e+01 0 -2 0
974 298 14 4.1699999999999998e-01 4.0353047855909452e+01 5.2305572784656455e+01 3.7904539766029274e+01 0 -2 0
682 201 13 -8.3399999999999996e-01 4.3293050858035613e+01 5.0839460836205070e+01 3.9880733945640472e+01 0 1 -1
1774 565 13 -8.3399999999999996e-01 4.0814324133486309e+01 5.3568494688140746e+01 4.2224408063395373e+01 0 -3 1
1250 390 14 4.1699999999999998e-01 4.2716471361711193e+01 4.9021478644862434e+01 3.9800189862500318e+01 0 -1 1
661 194 13 -8.3399999999999996e-01 4.1490848930432144e+01 5.2789291362705136e+01 3.9297340775648863e+01 -1 1 2
663 194 14 4.1699999999999998e-01 4.1239076702294533e+01 5.2975101624662877e+01 4.0201950255410011e+01 -1 1 2
662 194 14 4.1699999999999998e-01 4.2073587446306590e+01 5.2032591422481069e+01 3.9361021501686174e+01 -1 1 2
506 142 14 4.1699999999999998e-01 4.2253666941939201e+01 5.3844768311007130e+01 3.8076698651917475e+01 3 0 -2
684 201 14 4.1699999999999998e-01 4.3618672202564944e+01 5.0890432118811702e+01 4.0779403176431664e+01 0 1 -1
305 75 14 4.1699999999999998e-01 3.7298399008483621e+01 4.4150804010761497e+01 3.4265473768006345e+01 1 0 -3
437 119 14 4.1699999999999998e-01 3.9136847353183882e+01 5.4416539719314670e+01 4.1970178911204115e+01 2 0 0
1459 460 13 -8.3399999999999996e-01 4.5706425085581309e+01 5.1067194745383581e+01 3.8409036437517997e+01 -1 1 -3
121 14 13 -8.3399999999999996e-01 4.0930782821302437e+01 4.9538096563981973e+01 4.3444934212991313e+01 2 -1 0
1732 551 13 -8.3399999999999996e-01 4.4751849797415375e+01 4.8968086699784664e+01 3.0176997753945280e+01 1 0 -3
1460 460 14 4.1699999999999998e-01 4.6198734418526946e+01 5.1579291426178116e+01 3.7767459528183537e+01 -1 1 -3
1461 460 14 4.1699999999999998e-01 4.6255103460217207e+01 5.1073757399120289e+01 3.9193346311286319e+01 -1 1 -3
1704 541 14 4.1699999999999998e-01 4.6759546975636688e+01 5.0265463711369534e+01 4.1455731385099263e+01 -1 1 1
1414 445 13 -8.3399999999999996e-01 3.6966441915503772e+01 4.7057606780060482e+01 4.2310621462996743e+01 2 3 -1
89 3 14 4.1699999999999998e-01 4.9635295488514764e+01 5.1785088807053768e+01 4.3051998039078242e+01 -3 0 -2
182 34 14 4.1699999999999998e-01 5.0327956430668209e+01 5.3071336410951687e+01 3.8541971626197828e+01 -1 2 2
1307 409 14 4.1699999999999998e-01 4.6193135292834000e+01 4.7893226949234389e+01 4.2226782949410520e+01 -1 -4 2
1609 510 13 -8.3399999999999996e-01 4.8704638848625279e+01 4.7592002912641135e+01 3.7524987114811466e+01 0 -2 0
1611 510 14 4.1699999999999998e-01 4.7749085985262084e+01 4.7616460728610633e+01 3.7474455329295502e+01 0 -2 0
1435 452 13 -8.3399999999999996e-01 4.9205156186297565e+01 4.9614127157343589e+01 3.9457071056698915e+01 2 0 1
941 287 14 4.1699999999999998e-01 4.5551718274783873e+01 4.9202506202419485e+01 3.7761659962078319e+01 -2 1 -2
1436 452 14 4.1699999999999998e-01 4.8456040331957134e+01 4.9664619809369178e+01 4.0050796180145518e+01 2 0 1
181 34 13 -8.3399999999999996e-01 4.9625675344985346e+01 5.2472690251552208e+01 3.8796250441070086e+01 -1 2 2
548 156 14 4.1699999999999998e-01 4.4737100697014583e+01 5.2450665316916030e+01 4.2083640872871364e+01 0 0 -1
183 34 14 4.1699999999999998e-01 4.8851845514711037e+01 5.2802846904372018e+01 3.8339723061595571e+01 -1 2 2
599 173 14 4.1699999999999998e-01 4.9066516790629507e+01 5.3786122794494389e+01 4.1802931765084189e+01 -4 -2 0
600 173 14 4.1699999999999998e-01 4.9051110989081259e+01 5.2666292698968512e+01 4.0784286367695358e+01 -4 -2 0
547 156 13 -8.3399999999999996e-01 4.5513183358109821e+01 5.3003996641597226e+01 4.2171691398069036e+01 0 0 -1
1285 402 13 -8.3399999999999996e-01 4.9068398617981188e+01 4.1478098637187401e+01 3.1368809971191414e+01 -1 2 1
1168 363 13 -8.3399999999999996e-01 3.7677324987932337e+01 4.4569732934513723e+01 3.9559662163250358e+01 1 3 -2
572 164 14 4.1699999999999998e-01 5.0204408056228516e+01 4.1115436663004367e+01 3.9688271875107475e+01 -3 1 -1
1032 317 14 4.1699999999999998e-01 4.8133087829605060e+01 4.2206467842040333e+01 3.0130799799335392e+01 -2 -1 0
306 75 14 4.1699999999999998e-01 3.7560621133524883e+01 4.2662196800562917e+01 3.4350226526912522e+01 1 0 -3
980 300 14 4.1699999999999998e-01 3.8739078466064989e+01 5.3816062090661958e+01 3.0241042130399180e+01 -1 2 2
957 292 14 4.1699999999999998e-01 4.6391988638401180e+01 5.2030806009163896e+01 4.3392096377349368e+01 2 2 1
144 21 14 4.1699999999999998e-01 3.9160815608736591e+01 4.3005707634919624e+01 4.8023557317073355e+01 2 1 0
1440 453 14 4.1699999999999998e-01 4.1691094315949329e+01 4.5870019255562681e+01 4.6872010029279323e+01 -3 1 1
1439 453 14 4.1699999999999998e-01 4.1847789921151154e+01 4.4726414228446529e+01 4.5892464667205466e+01 -3 1 1
1595 505 14 4.1699999999999998e-01 4.0249413406149998e+01 4.4979965933892970e+01 4.7679346214862804e+01 4 2 -2
685 202 13 -8.3399999999999996e-01 4.2790536862555733e+01 4.6720137555465868e+01 4.8004068383414342e+01 1 0 0
687 202 14 4.1699999999999998e-01 4.2665496746647982e+01 4.6936229222747691e+01 4.8928137662708835e+01 1 0 0
1617 512 14 4.1699999999999998e-01 4.2030694262512050e+01 4.2972040775767326e+01 4.9295092109006092e+01 -1 2 -1
1596 505 14 4.1699999999999998e-01 3.9486603887336138e+01 4.5354884743385782e+01 4.8932124203491561e+01 4 2 -2
1594 505 13 -8.3399999999999996e-01 3.9726428261823550e+01 4.4604872896346066e+01 4.8387882701170085e+01 4 2 -2
1438 453 13 -8.3399999999999996e-01 4.1219144398552046e+01 4.5380117874563361e+01 4.6198588865427588e+01 -3 1 1