LAMMPS (30 Mar 2018)
  using 1 OpenMP thread(s) per MPI task
units           real
atom_style      full

pair_style        lj/charmm/coul/long 8.0 10.0 10.0
bond_style        harmonic
angle_style       charmm
dihedral_style    charmm
improper_style    harmonic
kspace_style      pppm 0.0001

# Define variables
variable tlo equal 150
variable thi equal 350
variable rep equal 0
variable temp equal 305.0
variable steps equal 1000000

read_data         data.peptide
  orthogonal box = (36.8402 41.0137 29.7681) to (64.2116 68.3851 57.1395)
  2 by 2 by 4 MPI processor grid
  reading atoms ...
  2004 atoms
  reading velocities ...
  2004 velocities
  scanning bonds ...
  3 = max bonds/atom
  scanning angles ...
  6 = max angles/atom
  scanning dihedrals ...
  14 = max dihedrals/atom
  scanning impropers ...
  1 = max impropers/atom
  reading bonds ...
  1365 bonds
  reading angles ...
  786 angles
  reading dihedrals ...
  207 dihedrals
  reading impropers ...
  12 impropers
  4 = max # of 1-2 neighbors
  7 = max # of 1-3 neighbors
  14 = max # of 1-4 neighbors
  18 = max # of special neighbors
#read_data         data.peptide.${rep}

neighbor          2.0 bin
neigh_modify      delay 5

timestep          2.0

thermo_style      custom step temp pe etotal enthalpy press
thermo            50

fix               fxnvt all nvt temp ${temp} ${temp} 100.0 tchain 1
fix               fxnvt all nvt temp 305 ${temp} 100.0 tchain 1
fix               fxnvt all nvt temp 305 305 100.0 tchain 1
fix	              fxSTMD all stmd ${steps} constant_f 0.001 0.00002 ${tlo} ${thi} -8500 -5500 12 50000 500000 fxnvt no
fix	              fxSTMD all stmd 1000000 constant_f 0.001 0.00002 ${tlo} ${thi} -8500 -5500 12 50000 500000 fxnvt no
fix	              fxSTMD all stmd 1000000 constant_f 0.001 0.00002 150 ${thi} -8500 -5500 12 50000 500000 fxnvt no
fix	              fxSTMD all stmd 1000000 constant_f 0.001 0.00002 150 350 -8500 -5500 12 50000 500000 fxnvt no
fix               2 all shake 0.0001 10 0 b 4 6 8 10 12 14 18 a 31
  19 = # of size 2 clusters
  6 = # of size 3 clusters
  3 = # of size 4 clusters
  640 = # of frozen angles

group             peptide type <= 12
84 atoms in group peptide
#dump              mydump peptide dcd 1000 ${rep}.dcd
#dump_modify       mydump pad 8
#dump_modify       mydump unwrap yes

run               ${steps}
run               1000000
PPPM initialization ...
  using 12-bit tables for long-range coulomb (../kspace.cpp:321)
  G vector (1/distance) = 0.268725
  grid = 15 15 15
  stencil order = 5
  estimated absolute RMS force accuracy = 0.0228209
  estimated relative force accuracy = 6.87243e-05
  using double precision FFTs
  3d grid and FFT values/proc = 1960 256
STMD: STAGE= 1, #bins= 251  binsize= 12.000000
  Emin= -8500.000000 Emax= -5500.000000 f-value= 1.024290 df= 0.001000
  f-tolerances: STG3= 1.000480 STG4= 1.000048
Neighbor list info ...
  update every 1 steps, delay 5 steps, check yes
  max neighbors/atom: 2000, page size: 100000
  master list distance cutoff = 12
  ghost atom cutoff = 12
  binsize = 6, bins = 5 5 5
  1 neighbor lists, perpetual/occasional/extra = 1 0 0
  (1) pair lj/charmm/coul/long, perpetual
      attributes: half, newton on
      pair build: half/bin/newton
      stencil: half/bin/3d/newton
      bin: standard
  STMD DIG: istep= 0  TSC1= 50000 Tlow= 1.147104
Per MPI rank memory allocation (min/avg/max) = 14.85 | 14.94 | 15.24 Mbytes
Step Temp PotEng TotEng Enthalpy Press 
       0    303.06656   -6135.9847   -4916.7176   -4142.6592    2588.2629 
      50    290.59402   -6017.9277   -4848.8389   -4461.0573    1296.6474 
     100    312.22832   -5952.8695   -4696.7438   -3921.0777    2593.6385 
     150    311.15712   -5822.4971   -4570.6809   -3843.7683    2430.6188 
     200     314.7213   -5777.0156   -4510.8603   -3924.6804    1960.0429 
     250    322.39358   -5830.8806    -4533.859   -3652.9154     2945.661 
     300    296.06047   -5819.3618   -4628.2809   -4229.6343    1332.9773 
     350    297.02003   -5890.9601   -4696.0188   -4362.0747    1116.6277 
     400    294.55094   -5858.6141   -4673.6063   -4147.0102     1760.809 
     450    316.00084   -5873.2839   -4601.9809   -4069.2595    1781.2907 
     500    316.83296   -5831.5837    -4556.933   -3696.9738    2875.4943 
     550    304.36104   -5829.8259    -4605.351   -3655.9572    3174.5418 
     600    299.28912   -5892.4396   -4688.3695   -4110.8385    1931.1231 
     650    297.44585   -5934.2856   -4737.6312   -4220.6741    1728.5786 
     700    300.36336   -5912.5648   -4704.1729   -4133.4556    1908.3399 
     750      313.492   -5865.7739   -4604.5643   -3928.7132    2259.8813 
     800    321.83365   -5879.0566   -4584.2876   -4248.8351    1121.6714 
     850    292.66734   -5827.6854   -4650.2555   -4268.0057    1278.1503 
     900    292.37028   -5884.2844   -4708.0495   -4230.4438    1596.9974 
     950    306.04435   -5934.0242   -4702.7772   -4399.8181    1013.0215 
    1000    307.19675   -5916.0021   -4680.1189   -3842.0668    2802.2422 
    1050    298.01439   -5884.1465   -4685.2048   -4252.5536    1446.6803 
    1100    299.42121   -5889.2352   -4684.6338   -4157.3876     1762.983 
    1150    301.83935   -5890.6508   -4676.3209   -4012.6663    2219.0994 
    1200    317.18018   -5934.4331   -4658.3855   -4229.5025    1434.0803 
    1250    312.13912   -5931.6384   -4675.8715   -4201.6162    1585.7944 
    1300    303.19036   -5922.3874   -4702.6223   -4430.4718    910.00512 
    1350    303.19152    -5960.431   -4740.6612   -4177.4162    1883.3543 
    1400    299.88056   -5964.7714   -4758.3219    -4168.516    1972.1673 
    1450     295.5515   -5910.0878   -4721.0546    -4067.754    2184.4782 
    1500    299.34713   -5883.5856   -4679.2822   -3795.4023    2955.4795 
    1550    308.43376   -5893.7753   -4652.9155   -3990.8355    2213.8345 
    1600    302.47741   -5846.9844   -4630.0876   -4064.0563    1892.6707 
    1650    304.39761   -5822.4541   -4597.8321   -3904.2097    2319.3045 
    1700    301.98921   -5796.2411   -4581.3083   -3915.8131    2225.2539 
    1750     309.6939   -5854.3172   -4608.3877     -4003.68    2021.9953 
    1800     303.3977    -5858.742   -4638.1427   -4158.1371     1605.022 
    1850    298.76747   -5863.4462   -4661.4748   -4097.4609    1885.9252 
    1900      311.086    -5925.891    -4674.361   -4225.0533    1502.3756 
    1950     303.2573   -5918.0945   -4698.0601   -4382.7223    1054.4128 
    2000    298.62056   -5943.2485   -4741.8682   -4464.7366    926.66058 
    2050    298.57457   -5961.2319   -4760.0366   -4261.2426    1667.8458 
    2100    298.46976   -5957.5943   -4756.8206   -4032.6416    2421.4786 
    2150    307.91484   -5990.0759   -4751.3037   -4464.1345    960.22397 
    2200    297.76391   -5953.1798   -4755.2458   -4305.8094     1502.806 
    2250    300.53126    -5953.556   -4744.4886   -4375.1267    1235.0565 
    2300    303.57795   -5918.7903   -4697.4658   -4155.0052    1813.8561 
    2350    312.52788   -5923.4086   -4666.0777   -4411.6292    850.81373 
    2400      300.152   -5883.4089   -4675.8674   -4087.4725    1967.4495 
    2450    296.04619   -5856.5987   -4665.5753   -4050.0603    2058.1325 
    2500    300.53677   -5845.0394     -4635.95   -3896.0471    2474.0551 
    2550    310.27091   -5869.2121   -4620.9612   -3765.3328     2861.013 
    2600    299.57686   -5872.2288   -4667.0011   -3782.1783    2958.6323 
    2650    303.07382   -5951.6427   -4732.3465   -4364.2238    1230.9127 
    2700    294.81785   -5969.9903   -4783.9086   -4669.8246    381.46922 
    2750    292.10597   -5946.4535    -4771.282   -4384.4977    1293.3123 
    2800    306.78208   -5920.6318   -4686.4169   -4042.1521    2154.2645 
    2850    317.96748   -5909.4108   -4630.1958   -4056.3151    1918.9175 
    2900    318.97365   -5952.9581   -4669.6952     -4563.51    355.05731 
    2950    294.56222   -5944.5667   -4759.5134   -4173.6081    1959.1249 
    3000    296.87156   -6033.4293   -4839.0853   -4159.5711    2272.1302 
    3050    299.35788   -6017.1439   -4812.7973   -4713.4143    332.31252 
    3100     308.7954   -5971.3108    -4728.996   -4159.9147    1902.8695 
    3150     306.4217   -5912.5445   -4679.7794   -4308.6205     1241.065 
    3200    309.66454   -5907.5627   -4661.7513   -4188.4641    1582.5573 
    3250    303.10941    -5853.995   -4634.5556   -3953.4048    2277.6022 
    3300    305.00034   -5858.4486   -4631.4018   -3895.7825    2459.7318 
    3350    307.63136   -5879.3765   -4641.7448   -3954.9141    2296.5946 
    3400    312.35293   -5925.4713   -4668.8442   -4455.0839    714.76241 
    3450    309.07027   -5927.8522   -4684.4317   -4035.7465    2169.0453 
    3500    299.19631   -5860.0672   -4656.3705   -3944.2704    2381.0897 
    3550    302.10177   -5806.3182   -4590.9326   -3573.1781    3403.1236 
    3600    317.98323   -5843.5292   -4564.2509   -3946.9598    2064.0711 
    3650    307.52261   -5829.6964   -4592.5022    -4062.353    1772.6898 
    3700    305.36555   -5884.8767   -4656.3605   -4031.7794    2088.4472 
    3750    293.03486   -5905.7681   -4726.8596   -4246.9258    1604.7818 
    3800    299.14426   -5971.0784   -4767.5911   -4373.2433    1318.6032 
    3850    292.29782   -5982.2022   -4806.2589   -4376.2284    1437.9173 
    3900    293.92715   -5975.6125   -4793.1142   -4156.7726    2127.7713 
    3950    311.52915   -5979.6669    -4726.354   -4244.8789    1609.9356 
    4000    307.56256   -5901.2304   -4663.8755   -4012.2642    2178.8296 
    4050    304.03755   -5847.7076   -4624.5342    -4226.469    1331.0331 
    4100    312.26641   -5838.6967   -4582.4177   -3853.1225    2438.5859 
    4150    305.89971   -5772.7792   -4542.1141   -3356.7185    3963.6742 
    4200    300.36374   -5759.7857   -4551.3924   -3382.6013    3908.1529 
    4250    295.03686    -5787.158   -4600.1953   -3941.6694    2201.9503 
    4300    296.99156   -5820.6617    -4625.835   -4107.0292    1734.7603 
    4350     297.1259     -5799.12   -4603.7528    -3727.005    2931.6311 
    4400    319.06159    -5892.594   -4608.9773   -4249.8403    1200.8665 
    4450    303.74992   -5874.5813    -4652.565   -3938.4258    2387.9077 
    4500    302.79204   -5950.9447   -4732.7821   -4523.7118    699.08024 
    4550     290.6807    -5974.479   -4805.0414   -4487.9587    1060.2475 
    4600    297.68138   -6024.1965   -4826.5946   -4836.2384   -32.246661 
    4650    298.77492   -5990.8132   -4788.8118   -4463.5949    1087.4462 
    4700    300.25597   -5902.4964   -4694.5367   -4197.8427    1660.8238 
    4750    313.41352   -5903.7385   -4642.8446   -3897.0243    2493.8413 
    4800    318.36855   -5962.7464   -4681.9179   -4384.4793    994.56249 
    4850    301.15023   -5986.3996   -4774.8421   -4673.6924    338.22003 
    4900    286.31565   -5962.4991   -4810.6226   -4447.4113    1214.4901 
    4950    305.51229   -5980.8954   -4751.7889   -4436.9878    1052.6184 
    5000    313.34178   -5931.8033    -4671.198   -3875.1804    2661.6891 
    5050    308.63827   -5862.7596    -4621.077   -3947.5864    2251.9888 
    5100    305.78768   -5852.2854    -4622.071   -3875.6368    2495.8942 
    5150    302.17282   -5855.4797   -4639.8082   -3690.9892    3172.6201 
    5200    302.41134   -5911.2752   -4694.6442   -4195.8138    1667.9672 
    5250    294.15892   -5907.2636   -4723.8329   -4155.0699    1901.8052 
    5300    312.09812   -5970.2076   -4714.6057   -4564.4777     501.9913 
    5350     309.2491   -5957.8907   -4713.7506   -4405.3746    1031.1346 
    5400    296.47448   -5901.7932   -4709.0467    -4240.293    1567.3984 
    5450    310.98226   -5988.9358   -4737.8231   -4556.8093    605.26598 
    5500    303.96109    -6040.228   -4817.3622   -4746.6628    236.40148 
    5550    286.17732    -6025.486    -4874.166   -4465.7085    1365.7827 
    5600    299.74046   -6054.0121   -4848.1263   -4734.8065    378.91373 
    5650     315.6435   -6043.4361   -4773.5708   -4333.9202    1470.0845 
    5700    311.43785    -5996.093   -4743.1474   -4446.8952    990.59522 
    5750    297.92836   -5969.5337   -4770.9381   -4564.0802    691.68245 
    5800    293.19431   -5964.1455   -4784.5955   -4673.8658    370.25312 
    5850    301.07578   -5937.9343   -4726.6763   -3837.8366    2972.0636 
    5900    307.68706   -5891.9875   -4654.1317   -4204.6079    1503.0982 
    5950    303.62587   -5840.4595   -4618.9423   -4238.4164    1272.3862 
    6000    311.86628   -5875.6362   -4620.9669   -4253.1963    1229.7354 
    6050    313.63393   -5910.3883   -4648.6076   -4084.5873    1885.9468 
    6100    306.19624   -5925.5688   -4693.7108   -4198.6246    1655.4477 
    6150    310.06156   -5997.3571   -4749.9484   -4440.5238    1034.6406 
    6200    283.15323    -5928.361   -4789.2073   -4210.0237    1936.6489 
    6250    304.78499   -6020.3486   -4794.1681   -4757.2447    123.46268 
    6300    308.99749   -6035.4202   -4792.2924   -4857.8698   -219.27469 
    6350    293.15291   -5963.6207   -4784.2373   -4527.3352    859.01806 
    6400    302.39155   -5940.1405    -4723.589    -4283.214    1472.5071 
    6450    305.44298   -5904.5578   -4675.7302   -3834.5013    2812.8647 
    6500    303.24079   -5877.3712   -4657.4032   -4168.4062    1635.0867 
    6550    302.78813   -5865.9928   -4647.8459   -4101.3712    1827.2784 
    6600    311.75553   -5890.6809   -4636.4572   -4296.5897    1136.4341 
    6650    306.66735   -5879.8675   -4646.1141   -3980.8368    2224.5254 
    6700    302.68997   -5871.2238   -4653.4717   -4150.6406    1681.3449 
    6750    305.61082   -5898.8285   -4669.3256   -4134.9286    1786.8936 
    6800     300.0581   -5912.2346   -4705.0709   -4330.7674    1251.5797 
    6850    297.06103   -5948.6432    -4753.537   -4453.8706    1002.0116 
    6900    294.12542   -5952.3241   -4769.0281   -4567.9068    672.50055 
    6950    310.52641   -5996.7243   -4747.4455   -4592.6581    517.57145 
    7000    301.95869   -5987.2323   -4772.4223   -4694.6231    260.14151 
    7050    295.31299   -6032.9823   -4844.9086    -4752.353    309.48344 
    7100    298.80786   -6081.5028   -4879.3689   -4515.2611    1217.4878 
    7150    295.28642   -6040.1594   -4852.1926   -4616.7899    787.12962 
    7200    311.17357   -6052.0188   -4800.1364   -4596.8778    679.64724 
    7250    310.80881   -6026.6033   -4776.1884   -4205.4166    1908.5222 
    7300    299.58698    -5995.942   -4790.6736    -4326.513    1552.0402 
    7350     295.5634    -5992.705   -4803.6239   -4259.6916    1818.7774 
    7400    307.56778    -6049.428    -4812.052   -4636.1847    588.05763 
    7450    302.99292    -6038.108   -4819.1372   -4960.5731   -472.92729 
    7500    302.07432   -5985.7562    -4770.481   -4492.8535    928.31883 
    7550    309.71559   -5962.0496   -4716.0328   -4177.4424    1800.9149 
    7600    313.67761    -5955.191   -4693.2346   -4169.2881    1751.9497 
    7650    287.43973   -5836.0346   -4679.6358   -4088.5546    1976.4318 
    7700      309.582   -5857.0028   -4611.5235   -4046.8729    1888.0541 
    7750    305.54376   -5786.4047   -4557.1717   -3793.8398     2552.396 
    7800    310.65039   -5819.7851   -4570.0076   -3782.7483    2632.4035 
    7850    306.03748   -5843.0603   -4611.8409   -3878.4234    2452.3697 
    7900    302.20052   -5869.1882   -4653.4053   -4236.2259    1394.9462 
    7950    312.41847   -5914.8139   -4657.9231   -4488.0955    567.86242 
    8000    318.90141   -5939.3009   -4656.3286   -4035.2491    2076.7388 
    8050    304.93333   -5931.8123   -4705.0351   -4565.7713    465.66417 
    8100    299.93544   -5960.2755   -4753.6052   -4345.8306    1363.4993 
    8150    297.37204   -5977.9339   -4781.5764   -4429.5683    1177.0296 
    8200    307.77249   -6049.7965    -4811.597   -4931.2115   -399.96201 
    8250    305.94706    -6072.996   -4842.1404   -5098.1426   -856.00914 
    8300    306.88004   -6082.2427   -4847.6336   -5050.4812   -678.27308 
    8350    303.73919   -6041.0646   -4819.0915   -5166.2021   -1160.6534 
    8400    299.77214   -5998.2483    -4792.235   -4353.8234    1465.9417 
    8450    309.38856   -6025.3066   -4780.6055   -4667.1078    379.50876 
    8500    306.24039   -6013.5073   -4781.4716   -4185.0592     1994.258 
    8550    316.66238   -6069.9161   -4795.9517   -4947.8502   -507.91158 
    8600    303.71875   -6089.3929    -4867.502   -4837.7198    99.584451 
    8650    291.50955   -6090.2854   -4917.5133    -4916.909    2.0205167 
    8700    302.14147   -6098.5855   -4883.0402   -4781.7454    338.70506 
    8750    312.83114   -6054.2288   -4795.6779   -4582.8141    711.76454 
    8800    315.84085   -6021.0346   -4750.3753    -4400.962     1168.353 
    8850    306.69728   -6045.3396   -4811.4658   -5028.7785   -726.64072 
    8900    283.93031   -6032.2299   -4889.9499    -4859.889    100.51645 
    8950    300.63659   -6075.9598   -4866.4687   -5068.2387   -674.66957 
    9000    302.74246   -6025.2047   -4807.2416   -4249.9801    1863.3467 
    9050    305.47836   -5978.5602   -4749.5903   -4186.1116    1884.1356 
    9100    310.09119   -5942.4209   -4694.8931   -4157.7058    1796.2233 
    9150    306.59564   -5900.4152   -4666.9503   -4165.0288    1678.3034 
    9200    301.06111    -5891.276   -4680.0771    -4369.584    1038.2134 
    9250    303.90524   -5941.3097   -4718.6685   -4310.3735    1365.2393 
    9300    306.44649   -5987.4464   -4754.5815    -4085.382    2237.6405 
    9350     307.3814   -6013.2744   -4776.6483   -4293.4475    1615.7062 
    9400    299.59603   -5975.8356   -4770.5308   -4332.6997    1464.0009 
    9450     296.8197   -5947.6082   -4753.4729   -4233.3904    1739.0292 
    9500    306.78409   -5961.9661    -4727.743   -4051.4507    2261.3567 
    9550    301.93808   -5932.0157   -4717.2886   -3685.1415    3451.2489 
    9600    308.72163   -6024.7212   -4782.7032    -4587.717    651.98637 
    9650    299.40527   -6084.6851   -4880.1478   -5057.8682   -594.25406 
    9700    290.23493   -6115.3981   -4947.7539   -4635.7642    1043.2176 
    9750    296.47667   -6103.1961   -4910.4408   -4621.5377    966.02176 
    9800    319.45804   -6098.4827   -4813.2711   -4517.0847    990.37493 
    9850    319.19423   -6056.3595   -4772.2092     -4499.39    912.24098 
    9900    300.35818   -6016.2984   -4807.9274   -4610.9664    658.58945 
    9950     301.9746   -6057.6518   -4842.7778   -4900.0059   -191.35682 
   10000    299.17861   -6059.6667   -4856.0412   -4963.0468   -357.80077 
   10050    312.71176   -6110.7707      -4852.7   -4557.7549    986.22439 
   10100     304.8505   -6103.9276   -4877.4836   -5044.3585     -557.989 
   10150    292.49368   -6055.5957   -4878.8644   -4627.3154    841.11849 
   10200    299.22528    -6021.521   -4817.7078   -4409.1032    1366.2743 
   10250    307.40596   -5985.8219    -4749.097   -4389.4655    1202.5201 
   10300    309.41106   -5942.7787   -4697.9871   -3934.2433    2553.7732 
   10350    306.55266   -5904.0643   -4670.7723   -3758.2529    3051.2428 
   10400    295.60314   -5857.6097   -4668.3687   -3984.8365    2285.5655 
   10450    296.56267   -5875.1232   -4682.0219   -4068.7868     2050.509 
   10500    295.30298   -5845.7209   -4657.6875   -3881.2043    2596.3707 
   10550    314.73669   -5849.9178   -4583.7006   -3836.1833     2499.516 
   10600    315.45265   -5801.1733   -4532.0758   -3504.3989    3436.3013 
   10650     308.8645   -5772.0258   -4529.4331   -3899.2488     2107.183 
   10700    301.82973   -5815.6858   -4601.3946   -3947.7432    2185.6512 
   10750    288.63626   -5835.8491   -4674.6365   -4097.7112    1929.0979 
   10800    301.44004   -5915.6558   -4702.9324   -4098.2822    2021.8032 
   10850    305.74054   -5927.0803   -4697.0555   -4593.0324     347.8281 
   10900    302.07177   -5861.0171   -4645.7522   -4392.5369    846.69049 
   10950    315.85963    -5858.124   -4587.3892   -3978.8153     2034.923 
   11000    317.62005   -5862.6102    -4584.793   -4208.6819    1257.6239 
   11050    302.60634   -5868.9823   -4651.5667   -4146.0912    1690.1871 
   11100    302.82224   -5960.2823   -4741.9982   -4174.3967    1897.9211 
   11150    303.49708    -5995.848   -4774.8489   -4705.5823    231.61062 
   11200    293.80994    -5932.056   -4750.0293   -4361.5762    1298.8925 
   11250    303.00788   -5908.3904   -4689.3594   -4250.7195    1466.7051 
   11300    313.01107   -5913.9711   -4654.6963   -4001.0915    2185.4955 
   11350    307.36443   -5890.5964   -4654.0386    -3869.569    2623.0756 
   11400    311.21315   -5953.1621   -4701.1205   -4368.2389    1113.0752 
   11450    295.81928   -5959.1098   -4768.9993   -4575.2458    647.86456 
   11500    294.43289   -5974.7458   -4790.2128   -4544.7832    820.65685 
   11550    315.24421   -6018.1457   -4749.8868   -4590.0675    534.39664 
   11600    293.74942   -5859.6294   -4677.8461    -4147.577    1773.0909 
   11650    318.02593   -5879.6164   -4600.1663   -3949.6854    2175.0496 
   11700    316.66845   -5828.4401   -4554.4513   -4003.7636    1841.3656 
   11750    309.95475   -5811.0769   -4564.0979   -3775.8398    2635.7434 
   11800    302.09979   -5846.0845   -4630.7068   -3809.1751    2747.0024 
   11850    301.73569    -5909.421   -4695.5082     -4013.95    2278.9647 
   11900     294.5599   -5915.3744   -4730.3305   -4353.8839    1258.7458 
   11950    311.73456   -5993.3376   -4739.1983   -4712.8184    88.208089 
   12000     306.7118   -6023.9938   -4790.0615   -4772.7979    57.725388 
   12050    299.60256   -6039.1573   -4833.8263   -4662.8841    571.58915 
   12100    308.58631   -6074.5568   -4833.0832   -4892.3883   -198.30185 
   12150     312.0854   -6055.9589   -4800.4082    -4641.199    532.35672 
   12200    307.58756   -5988.3053   -4750.8498   -4287.0525    1550.8255 
   12250    306.05256   -5956.7245   -4725.4444   -4016.6064    2370.1819 
   12300    306.21006   -5941.9839   -4710.0703   -3895.9274    2722.2956 
   12350     301.2261   -5895.5115   -4683.6488   -3983.9241    2339.7092 
   12400    312.20101   -5917.0464   -4661.0306   -4184.2975    1594.0795 
   12450    315.53391   -5934.8256   -4665.4012    -4161.521    1684.8527 
   12500     303.1289   -5897.6741   -4678.1562   -4109.5136    1901.4024 
   12550    294.77473    -5824.256   -4638.3477   -4019.9615    2067.7331 
   12600    312.12982   -5839.0675    -4583.338   -3848.3559    2457.6012 
   12650    311.98886   -5820.5691   -4565.4067   -3763.4266    2681.6266 
   12700    315.50927   -5874.3958   -4605.0705   -3950.7804    2187.7866 
   12750    292.41772   -5845.2783   -4668.8526   -4050.4809    2067.6843 
   12800     304.4586   -5942.4155   -4717.5481   -4307.8787    1369.8349 
   12850    309.14586   -5980.1583   -4736.4336   -4559.7571    590.76314 
   12900    308.80492   -6011.0726   -4768.7195   -4440.4356    1097.7017 
   12950    305.43126    -6046.125   -4817.3445   -4587.3442    769.06489 
   13000    301.65431   -6079.4618   -4865.8764   -5417.4859   -1844.4478 
   13050    300.24198   -6090.3323   -4882.4288   -4783.5895    330.49473 
   13100    302.65539   -6106.8566   -4889.2437   -4884.2691    16.633722 
   13150    303.86131   -6103.8439   -4881.3795   -4916.0827   -116.03907 
   13200    308.69652   -6100.1309    -4858.214   -4769.9464    295.14539 
   13250    309.20597   -6098.0567   -4854.0902   -4738.0404    388.04224 
   13300     313.1913   -6126.4785   -4866.4786     -5001.88   -452.74924 
   13350    298.35204   -6101.5107   -4901.2106   -4963.1522   -207.11781 
   13400    305.16158   -6109.2541   -4881.5586   -5139.6424   -862.96946 
   13450    297.64201   -6022.5636     -4825.12   -4500.9695    1083.8802 
   13500    302.14148   -5954.1401   -4738.5948   -4340.5101    1331.0981 
   13550    310.09586   -5910.0187   -4662.4721    -4197.742    1553.9445 
   13600     310.7717     -5879.53   -4629.2643   -3954.6096    2255.8812 
   13650    306.78161    -5869.014    -4634.801   -4273.3046    1208.7559 
   13700    300.31837   -5838.5704   -4630.3595     -3654.72    3262.3012 
   13750    301.00655   -5860.7187   -4649.7393   -4283.1184    1225.8911 
   13800    312.46781   -5906.0383   -4648.9491   -4162.7809    1625.6279 
   13850    309.09447   -5935.0913   -4691.5734   -3990.3232      2344.81 
   13900    306.09271   -6008.9614   -4777.5199   -4627.9562    500.10466 
   13950    307.82211   -6069.4947   -4831.0956   -4659.7199     573.0387 
   14000    303.35689   -6091.6399   -4871.2048   -5008.7039   -459.76363 
   14050    309.02347   -6108.6896   -4865.4573   -5066.4166   -671.95905 
   14100    299.88582   -6048.0956    -4841.625   -4435.5201    1357.9158 
   14150    308.23622   -6010.0723   -4770.0072   -4492.6168     927.5261 
   14200     308.4361   -5949.7148   -4708.8456    -4385.995    1079.5338 
   14250    308.80212    -5977.129   -4734.7872   -4268.9951    1557.4954 
   14300    297.02454    -6031.804   -4836.8446   -4771.2841    219.21855 
   14350    302.29885   -6143.4373   -4927.2588   -4821.1799    354.70203 
   14400    294.45683   -6126.4741   -4941.8449   -4864.5555    258.43665 
   14450    292.66605   -6075.1691   -4897.7444   -4783.2442    382.86068 
   14500    303.67455   -6034.0398   -4812.3267   -4423.5157    1300.0894 
   14550    314.55336   -6010.5513   -4745.0717   -4365.4849    1269.2459 
   14600    309.69197   -5992.1966   -4746.2748   -4228.4204     1731.579 
   14650    305.48334   -6026.7832   -4797.7932   -4913.2488   -386.05543 
   14700     304.2335   -6084.9319   -4860.9701    -4928.955   -227.32473 
   14750    302.22846   -6142.0002   -4926.1049   -5121.5381   -653.48096 
   14800    294.51215   -6135.8315   -4950.9797   -4907.6725    144.80883 
   14850    298.97096   -6116.7404   -4913.9503    -4792.053    407.59499 
   14900    307.33653   -6106.1678   -4869.7222   -4832.3613    124.92599 
   14950    311.70739   -6121.7984   -4867.7684   -4829.1299    129.19786 
   15000    306.70055   -6114.3278   -4880.4409   -5194.7751    -1051.057 
   15050    304.09426   -6111.6357    -4888.234   -4698.0799    635.82908 
   15100    315.03994   -6169.6301   -4902.1929   -4493.9314    1365.1272 
   15150    292.67774    -6098.707   -4921.2352    -4686.393    785.25523 
   15200    303.06091   -6131.9403   -4912.6959   -4781.8919    437.37684 
   15250    304.55277   -6133.9775   -4908.7313   -4848.8004    200.39407 
   15300    300.83764   -6132.8594   -4922.5595   -4786.8234    453.86852 
   15350    303.12403   -6136.5271   -4917.0289   -4846.6522    235.32253 
   15400    312.16862   -6160.6099   -4904.7243   -4902.8176    6.3756001 
   15450    306.46463   -6130.8527   -4897.9148   -4798.2796    333.15608 
   15500    297.34023   -6071.5805    -4875.351   -4553.6793     1075.592 
   15550    302.51837   -6040.1828   -4823.1212   -4675.9835    491.99238 
   15600    296.98757   -5957.0101   -4762.1994   -4078.5224    2286.0493 
   15650     300.4936   -5907.9464   -4699.0306   -4185.0346    1718.6778 
   15700    314.89453   -5912.3209   -4645.4687   -4075.3381     1906.378 
   15750    310.50542   -5885.2222   -4636.0279   -3903.8233    2448.3141 
   15800    306.28737   -5922.3113   -4690.0866   -3981.9304    2367.9019 
   15850    297.30589    -5960.236   -4764.1447   -4339.5614    1419.7033 
   15900    295.91261   -5977.4522   -4786.9662   -3961.7018    2759.4833 
   15950    295.29233   -5989.0759   -4801.0854   -4075.2972     2426.859 
   16000    294.65486   -5963.6735   -4778.2475    -4408.231    1237.2453 
   16050    305.97971   -5951.4847   -4720.4977   -4300.3552    1404.8543 
   16100    301.37907   -5857.5157   -4645.0376   -3960.7177    2288.1993 
   16150    294.58334   -5798.8188   -4613.6806   -3669.7961    3156.1202 
   16200    304.95408   -5837.8242   -4610.9635   -4309.4601    1008.1539 
   16250    314.65689   -5875.3247   -4609.4286   -4224.4429    1287.2984 
   16300    304.27092   -5870.4591   -4646.3468   -4317.4575    1099.7256 
   16350    290.23626   -5883.5094   -4715.8599   -4427.7319     963.4301 
   16400    295.52198    -5926.937   -4738.0226   -4266.7412      1575.85 
   16450    316.83227   -5977.3113   -4702.6634   -4304.2327    1332.2554 
   16500    300.88208   -5904.1289   -4693.6502   -4005.0486    2302.5163 
   16550    307.48607   -5916.0615   -4679.0143   -4154.9644    1752.2954 
   16600    300.11696    -5845.461   -4638.0604   -4239.6171    1332.2977 
   16650     327.1705   -5901.1922   -4584.9526   -4201.3527    1282.6649 
   16700    298.97424   -5807.5508   -4604.7476   -3450.9346    3858.0696 
   16750    301.71143   -5869.7586   -4655.9433    -4040.226    2058.8091 
   16800    302.34028   -5936.9057   -4720.5605   -4340.0005    1272.4999 
   16850    291.50169   -5946.1434    -4773.403   -4340.8714    1446.2803 
   16900     301.9463   -6006.6329   -4791.8728   -4446.3734    1155.2658 
   16950    300.51795   -5997.4271   -4788.4134   -4386.3963    1344.2472 
   17000      308.449   -6018.9232   -4778.0021   -4706.6824    238.47548 
   17050    297.96176   -5976.2295   -4777.4996   -4258.4997    1735.4093 
   17100    298.00299   -5953.5154   -4754.6196    -4490.673    882.57324 
   17150    307.56378   -5897.9794   -4660.6196    -3819.698    2811.8372 
   17200    314.31755   -5841.6218   -4577.0909   -3920.8915    2194.1712 
   17250    317.50988   -5836.0419   -4558.6679   -3972.8341    1958.8857 
   17300    304.19668   -5818.0695   -4594.2559    -3597.704    3332.2269 
   17350    304.98389   -5877.5239   -4650.5432   -4079.6191    1909.0314 
   17400     299.9046   -5917.2623   -4710.7162   -3992.7467    2400.7151 
   17450    295.38791   -5958.6829   -4770.3078   -4609.9452    536.21342 
   17500      299.111   -5985.8609   -4782.5075   -4494.1882    964.06943 
   17550    310.25966   -6054.9831   -4806.7774   -4923.7378    -391.0869 
   17600    302.18492   -6070.2308   -4854.5107   -4776.8028    259.83632 
   17650     288.2697   -6036.9627   -4877.2249   -4820.5107    189.63863 
   17700     306.9629   -6085.9796   -4851.0372   -5027.0292   -588.47462 
   17750    309.65996   -6031.6542   -4785.8612   -4593.7253    642.45587 
   17800    302.91222   -5929.4836   -4710.8375   -4101.3562    2037.9571 
   17850    304.52505   -5873.9999   -4648.8652   -4144.1876     1687.519 
   17900    304.79982   -5853.8687   -4627.6286   -4099.4579    1766.0742 
   17950     307.8693   -5865.3326   -4626.7436    -3987.563    2137.2642 
   18000    300.01952   -5856.7836   -4649.7751   -4051.9135    1999.1038 
   18050    302.66063   -5881.2462   -4663.6122   -4350.1382    1048.1805 
   18100    318.27363    -5932.053   -4651.6063   -4321.0154    1105.4157 
   18150    315.23424   -5920.0154   -4651.7965   -4172.9552     1601.129 
   18200    313.34956   -5952.9763   -4692.3397   -4494.6963    660.87144 
   18250    299.58664   -5980.4301   -4775.1631   -4647.6736    426.29396 
   18300    294.99097   -6004.7049   -4817.9267   -4301.0778    1728.2169 
   18350    295.97807   -5982.6302   -4791.8809   -4671.3515    403.02093 
   18400    302.46825   -5934.5621   -4717.7021   -4368.7047    1166.9622 
   18450    303.82116   -5893.1911   -4670.8882   -4259.0544    1377.0719 
   18500    309.09285   -5906.2951   -4662.7836   -4385.8854    925.88036 
   18550    303.09803     -5863.75   -4644.3563   -3999.3798    2156.6446 
   18600    302.16236   -5834.7007   -4619.0713   -4018.9154    2006.7753 
   18650    298.50438   -5808.2281   -4607.3151   -3821.2767    2628.3211 
   18700    308.54474   -5840.9905   -4599.6842   -3999.8734    2005.6211 
   18750    301.58079   -5817.9468   -4604.6571   -3985.5802    2070.0424 
   18800    300.08633   -5817.0851   -4609.8078   -4156.0708     1517.186 
   18850    307.61996   -5841.6977   -4604.1119   -4083.4057    1741.1148 
   18900    309.57791   -5836.4489    -4590.986   -4057.0463    1785.3644 
   18950    318.48149   -5912.8911   -4631.6082   -4327.8295    1015.7623 
   19000    297.62722   -5911.3882   -4714.0041   -4315.3586    1332.9735 
   19050    298.39734    -5994.856   -4794.3737   -4760.6661    112.70994 
   19100    297.00648   -6004.0731   -4809.1864   -4929.7771   -403.22609 
   19150    307.98365   -6044.0491        -4805   -4679.6927    418.99711 
   19200    307.86721   -6070.8183   -4832.2377   -4853.1377   -69.884645 
   19250    305.80233   -6090.0973    -4859.824   -4695.1879    550.50284 
   19300    307.82745   -6128.5077   -4890.0871   -5031.1962   -471.83421 
   19350    309.78011   -6139.8541   -4893.5778   -5035.2786   -473.81308 
   19400    303.52944   -6103.5572   -4882.4279   -4758.8184    413.32021 
   19450    302.75684   -6055.6911   -4837.6701   -4872.9191   -117.86408 
   19500    310.93246   -6043.6225   -4792.7102   -4440.5599    1177.5047 
   19550    304.28323   -6034.4021   -4810.2402   -4553.5649    858.25954 
   19600    317.02892   -6123.7963   -4848.3573   -4632.4547    721.92577 
   19650    304.63429    -6153.454   -4927.8798   -5275.9098   -1163.7277 
   19700    298.43193   -6181.5601   -4980.9386   -4479.5304     1676.587 
   19750    299.05329   -6156.0272    -4952.906   -4976.2262   -77.977136 
   19800    308.07326   -6135.3422   -4895.9327   -4576.3474    1068.6154 
   19850    305.08731   -6079.7344   -4852.3376   -4912.8977   -202.49804 
   19900    315.61943   -6087.1667   -4817.3981   -4617.8347    667.29161 
   19950      304.253   -6070.8733   -4846.8331    -4374.987    1577.7386 
   20000    295.33194   -6105.8096   -4917.6597   -5339.6332   -1410.9768 
   20050    297.07356   -6116.0026    -4920.846   -5123.6003   -677.96088 
   20100    301.87148   -6092.3871   -4877.9279   -4927.4698   -165.65587 
   20150    309.66278   -6065.2541   -4819.4498   -4459.9631    1202.0363 
   20200    304.17082   -6001.3623   -4777.6527   -4621.4557    522.28492 
   20250     301.2624    -5975.457   -4763.4483   -4283.8111      1603.79 
   20300    300.75218   -5952.4024   -4742.4463   -4241.9819    1673.4313 
   20350    312.05563   -5945.9879   -4690.5569    -4016.011    2255.5174 
   20400    317.78783   -5936.5541   -4658.0619   -4092.8588    1889.9019 
   20450    310.88634   -5949.8245   -4699.0977   -4081.0648    2066.5515 
   20500    301.50348   -5994.9432   -4781.9646    -4175.367    2028.3147 
   20550    301.23516   -6049.1849   -4837.2857   -4517.0261    1070.8704 
   20600    294.01087   -6019.6755   -4836.8404   -4550.4951    957.46899 
   20650    309.12209   -5988.6591     -4745.03   -4254.6283    1639.7839 
   20700    308.84841   -5887.2228   -4644.6947   -4092.6509    1845.9002 
   20750    309.99796   -5842.6601   -4595.5073   -3856.8584    2469.8621 
   20800    302.07561   -5819.9926   -4604.7123   -3580.1689    3425.8238 
   20850    317.91192   -5922.1448   -4643.1533    -4068.911    1920.1266 
   20900      303.633   -5956.4735   -4734.9275   -4166.8638    1899.4669 
   20950    303.59454   -6044.8938   -4823.5026   -4634.9962    630.31948 
   21000    290.57203   -6026.1327   -4857.1324   -4331.9227    1756.1732 
   21050    308.86904   -6102.6064   -4859.9954   -4905.7724   -153.06738 
   21100    317.72779   -6161.9353   -4883.6846   -4972.0009   -295.30818 
   21150    301.60579   -6180.3444   -4966.9542    -4891.587    252.00945 
   21200    290.97836   -6179.8504   -5009.2154   -5045.1745   -120.23876 
   21250    310.02292   -6201.9618   -4954.7086   -4456.8889    1664.5878 
   21300     303.0174   -6074.2362   -4855.1669   -4840.8385    47.910794 
   21350    301.08336   -5983.6931   -4772.4046   -4338.1851    1451.9244 
   21400    300.05883   -5933.5163   -4726.3496   -4294.0717    1445.4321 
   21450    310.73909   -5932.3056   -4682.1712   -4266.2623    1390.6982 
   21500    309.37858   -5907.1176   -4662.4567   -4127.7991    1787.7648 
   21550    300.26387   -5866.1512   -4658.1596   -4072.0904    1959.6727 
   21600    312.89799   -5904.8142   -4645.9943   -4195.2941    1507.0318 
   21650    318.97898   -5956.2117   -4672.9274   -4308.7656    1217.6685 
   21700    302.08298   -5947.4695   -4732.1595   -4472.0825    869.63414 
   21750     305.5818   -6017.9405   -4788.5544   -4713.3125    251.59052 
   21800     301.9482   -6043.2176   -4828.4498   -4510.8648    1061.9267 
   21850    295.61703   -6046.2869     -4856.99   -4747.4996    366.10951 
   21900    304.01202   -6082.0706   -4858.9999   -5089.4395   -770.53384 
   21950    301.03251   -6063.4068   -4852.3229   -4455.8717    1325.6363 
   22000    300.39887   -6018.3785   -4809.8438   -4491.6174    1064.0717 
   22050    306.96595   -5999.7189   -4764.7642    -4440.961    1082.7193 
   22100    305.55562   -5969.7763   -4740.4955   -4273.0496    1563.0252 
   22150    305.86612   -6023.7667   -4793.2367   -4581.0611     709.4636 
   22200     292.7483   -6025.6206    -4847.865   -4528.7494    1067.0449 
   22250    302.04364   -6053.4593   -4838.3075   -4837.9332    1.2516428 
   22300    313.81397   -6081.3329    -4818.828   -5099.1153   -937.21261 
   22350    298.00473   -6017.6193   -4818.7165   -4391.0278    1430.0869 
   22400    301.28419    -6005.174   -4793.0776   -4360.6052    1446.0825 
   22450    307.96663   -5955.4285   -4716.4479   -4008.5649    2366.9887 
   22500     300.8105   -5875.7448   -4665.5541   -3904.1337    2546.0046 
   22550    296.84259   -5811.0046   -4616.7773   -3764.7726    2848.8961 
   22600    309.38882   -5834.4044   -4589.7022   -3686.2423    3020.9501 
   22650    304.87247   -5806.4881   -4579.9557   -3727.5372      2850.28 
   22700    310.90716   -5872.6693   -4621.8587   -3915.0922    2363.2552 
   22750    305.76491   -5938.6138    -4708.491   -4267.9903     1472.927 
   22800    284.62573   -5908.3728   -4763.2951   -4507.7835    854.36832 
   22850    292.16808   -5925.7505   -4750.3291    -4449.495    1005.9159 
   22900    306.82331    -5918.636   -4684.2551   -4064.0998    2073.6485 
   22950    309.85239   -5878.8288   -4632.2617   -3881.9689    2508.7965 
   23000    300.92242   -5775.4794   -4564.8384   -3842.6561    2414.8019 
   23050    320.59687   -5819.0612   -4529.2679   -3646.7324     2950.984 
   23100    304.67571   -5818.3916   -4592.6508   -4046.5544    1826.0136 
   23150    298.52534   -5908.1766   -4707.1793   -4506.2746    671.77642 
   23200    302.34181   -6003.8524   -4787.5011   -4519.3399    896.66573 
   23250     307.2657   -6044.6291   -4808.4684   -4522.9464     954.7161 
   23300    323.98059   -6133.6706   -4830.2643   -4817.6147    42.297071 
   23350    292.50236   -6041.0367   -4864.2704   -4570.5254     982.2119 
   23400    306.68976   -6080.2994   -4846.4558   -5035.9014   -633.45993 
   23450      316.807   -6136.0127   -4861.4664   -5152.8768   -974.40535 
   23500    303.82012   -6151.3105   -4929.0118   -5210.2575   -940.41718 
   23550    298.99357    -6172.567    -4969.686   -5111.5415   -474.33021 
   23600    297.68571   -6160.0513   -4962.4319   -4890.2638    241.31267 
   23650     300.2691   -6141.4725   -4933.4599   -5076.6763   -478.88087 
   23700    312.91791   -6151.5307   -4892.6307   -4897.6871   -16.907428 
   23750    304.76503   -6102.5428   -4876.4426    -4798.066    262.07255 
   23800    311.52422     -6156.64   -4903.3469   -4961.8872   -195.74434 
   23850    307.35513   -6189.7842   -4953.2638   -5259.6169   -1024.3701 
   23900    297.75191   -6195.5888   -4997.7032   -5195.1021   -660.05403 
   23950    304.11008   -6196.1366   -4972.6713   -5014.2465   -139.01741 
   24000    305.19749   -6134.4168   -4906.5768   -5052.8851   -489.21939 
   24050    318.18163   -6139.1737   -4859.0972   -5174.5511   -1054.8012 
   24100    296.66815   -6058.1125   -4864.5869   -4797.8884    223.02348 
   24150    317.74729   -6158.9319   -4880.6028   -4959.9408   -265.28715 
   24200    305.20946   -6159.6496   -4931.7614   -5128.8685   -659.07789 
   24250    297.85339   -6174.7786   -4976.4846   -5516.2942   -1804.9918 
   24300    292.04475   -6143.3902    -4968.465   -5041.1568    -243.0639 
   24350    315.90344   -6203.7562   -4932.8451   -4904.7919    93.802971 
   24400    318.27251   -6220.5905   -4940.1483   -4652.1334    963.05197 
   24450    297.37929   -6168.9389   -4972.5523   -4929.9379    142.49222 
   24500    296.11389   -6177.2779   -4985.9821   -5344.5325   -1198.9051 
   24550    299.44921   -6152.3455   -4947.6314   -4742.1164    687.19196 
   24600    312.66118   -6118.9516   -4861.0844   -4989.6244   -429.80636 
   24650    315.07155   -6097.8813   -4830.3169   -4655.4053    584.86209 
   24700    300.26133   -6091.7085   -4883.7272   -4816.9442    223.30583 
   24750    302.41163   -6145.9496   -4929.3173    -4918.336     36.71898 
   24800    299.10843   -6141.8516   -4938.5084   -4995.1475   -189.38733 
   24850    296.71403   -6136.0171   -4942.3069   -4893.9141    161.81365 
   24900    299.86252    -6141.096   -4934.7191   -4987.3816   -176.09076 
   24950    295.78628   -6081.4914   -4891.5136   -4854.5918    123.45771 
   25000    308.24156   -6014.4602   -4774.3736   -4488.0742    957.31563 
   25050    314.46614   -5924.8126   -4659.6839   -4428.6945    772.37249 
   25100    320.65553   -5881.1717   -4591.1424   -4066.1327    1755.5047 
   25150    317.42964   -5879.7895   -4602.7383   -3999.1014    2018.4148 
   25200    315.44455   -5962.2972   -4693.2323   -4195.5981    1663.9676 
   25250    285.85133   -5956.5954   -4806.5869   -4257.9913    1834.3702 
   25300    292.97943   -6035.3458   -4856.6602   -4400.5786    1525.0259 
   25350    298.65148   -6068.1318    -4866.627    -4720.829    487.51296 
   25400    309.29335   -6078.6286   -4834.3105   -5040.1514   -688.28206 
   25450    304.14488    -6010.103   -4786.4977   -4597.5731    631.71797 
   25500    314.45759   -6034.3274   -4769.2331   -4260.5669    1700.8561 
   25550    296.62448   -6001.1846   -4807.8346   -4445.1084    1212.8683 
   25600    294.06285   -5977.3763    -4794.332   -4099.6768     2322.758 
   25650    307.03879   -5947.1606   -4711.9128   -4257.9523    1517.9336 
   25700    314.93923   -5897.5191   -4630.4871    -4021.153     2037.465 
   25750    324.99318   -5931.9513   -4624.4713   -4252.2634    1244.5727 
   25800    309.98674   -5961.7071   -4714.5994   -4440.0239    918.11387 
   25850    291.86904    -5975.041   -4800.8226   -4482.6284     1063.964 
   25900    295.34945   -5998.3963    -4810.176   -4590.9017    733.19968 
   25950    298.74203   -5978.7426   -4776.8736   -4327.2718    1503.3588 
   26000    302.02889   -5935.3676   -4720.2752    -4157.596    1881.4621 
   26050     309.0046   -5914.8326   -4671.6762   -4110.1467     1877.618 
   26100    313.40128   -5907.8158   -4646.9712   -4041.4229     2024.806 
   26150    304.63875   -5869.9145   -4644.3223   -3666.4933    3269.6225 
   26200    308.23668    -5919.044   -4678.9771   -4111.1863    1898.5541 
   26250    298.92912   -5916.8147   -4714.1929   -4113.0719    2010.0022 
   26300    311.64871   -5969.9378   -4716.1439   -4414.8663     1007.399 
   26350    314.11867   -5972.2579    -4708.527   -3965.1142    2485.7915 
   26400    299.09848   -5969.0401    -4765.737   -3884.6609    2946.1041 
   26450     293.7845   -6003.8479   -4821.9235   -4642.6329     599.5042 
   26500    302.10632    -6052.549   -4837.1451   -4831.8954    17.553802 
   26550    298.55108   -6031.2617   -4830.1608   -4589.1764    805.79339 
   26600    315.06449   -6049.1592   -4781.6233   -5033.7264   -842.97136 
   26650    316.15141   -6023.1998   -4751.2911   -4558.7145    643.92899 
   26700    311.00615   -6045.2814   -4794.0726   -4712.2216    273.68966 
   26750    302.71028   -6096.1823   -4878.3486   -5060.4748   -608.98585 
   26800       306.29   -6174.6554   -4942.4201   -5184.4583    -809.3168 
   26850    303.15429   -6205.6858   -4986.0657   -5256.8331    -905.3803 
   26900    295.91591    -6190.931   -5000.4317   -5462.1434   -1543.8515 
   26950    295.18052   -6160.2495   -4972.7087   -4817.0896    520.35254 
   27000    304.86113    -6142.371   -4915.8842   -4875.0724    136.46457 
   27050    309.65791   -6101.2912   -4855.5065   -4570.2994    953.66298 
   27100    315.08001   -6095.6591   -4828.0607   -4475.3371     1179.422 
   27150    302.72234   -6085.4964   -4867.6142   -4898.3536   -102.78535 
   27200     303.3876   -6120.1521   -4899.5934   -4659.6363    802.35839 
   27250     303.7747   -6119.4349   -4897.3189   -5026.3336   -431.39387 
   27300    308.02332   -6120.7212   -4881.5126   -4807.3856    247.86235 
   27350    315.31772   -6182.4858   -4913.9311   -5429.3077   -1723.2937 
   27400    301.02528   -6177.8679   -4966.8131   -5285.0271   -1064.0302 
   27450    304.75796   -6204.6628   -4978.5911   -5458.3697    -1604.263 
   27500    301.80969   -6179.7035   -4965.4929   -5187.1503   -741.16826 
   27550    312.95761   -6210.6786   -4951.6189   -5298.1682   -1158.7767 
   27600    301.61517   -6159.5401   -4946.1121   -5239.2914   -980.32048 
   27650    304.08692   -6132.5232   -4909.1511   -4808.3958    336.90127 
   27700    303.71527   -6070.1316   -4848.2547    -5051.693   -680.24804 
   27750    299.88226   -5996.9573    -4790.501   -4231.7024    1868.4867 
   27800    310.44544   -5981.2238   -4732.2707    -4480.032    843.42498 
   27850    306.35274   -5932.1028   -4699.6151   -3964.5614    2457.8405 
   27900    302.45311   -5924.5349   -4707.7358   -4026.2622    2278.6819 
   27950    308.12137   -5943.2156   -4703.6125   -4209.4287    1652.4305 
   28000    315.51693   -5964.7514   -4695.3953   -4318.0874    1261.6258 
   28050    290.97363   -5856.2524   -4685.6364   -4170.9136    1721.1076 
   28100    312.10191   -5918.4966   -4662.8794   -4162.3278    1673.7229 
   28150    300.47114   -5815.0679   -4606.2425   -3808.2139    2668.4134 
   28200    319.04252   -5853.1805   -4569.6406   -3605.9507    3222.3446 
   28250    304.90171   -5813.4616   -4586.8116   -4138.7609    1498.1724 
   28300    300.68364   -5886.5497   -4676.8694   -4177.0849    1671.1576 
   28350    303.40435   -5962.9238   -4742.2978   -4558.5958    614.25483 
   28400    304.57013   -5994.8169   -4769.5009   -4389.2761    1271.3791 
   28450    309.38262   -6006.8245   -4762.1473    -4353.363    1366.8751 
   28500    309.58263   -6016.1262   -4770.6444   -4715.1994    185.39448 
   28550    301.77641   -6012.6972   -4798.6205   -4678.3675    402.09676 
   28600    308.09481   -6017.4838   -4777.9876   -4955.7073   -594.25154 
   28650    303.80744   -5944.7147    -4722.467   -4203.1658    1736.4168 
   28700    306.68314   -5900.5253   -4666.7084   -4142.3688     1753.264 
   28750    309.06089   -5856.7683   -4613.3855   -3430.6982    3954.6185 
   28800    309.79455    -5872.486   -4626.1516   -3870.3316    2527.2783 
   28850    300.42182   -5915.4218   -4706.7948   -4660.1189    156.07277 
   28900    289.13175   -5948.1958   -4784.9899    -4323.431    1543.3407 
   28950    296.23741   -5991.9062   -4800.1135    -4673.862    422.15415 
   29000    312.01386   -6032.4229     -4777.16   -4720.3399    189.99244 
   29050    305.03701   -6018.4647   -4791.2703   -4423.6552    1229.2155 
   29100    303.24463    -6049.783   -4829.7996    -4675.319     516.5455 
   29150    306.12829    -6123.022   -4891.4373    -4727.042    549.69797 
   29200    296.18868   -6135.2169   -4943.6202   -5148.0932   -683.70791 
   29250    297.77909   -6145.8193   -4947.8243   -5054.0475   -355.18451 
   29300     308.0225   -6171.0322   -4931.8269    -4935.138   -11.071499 
   29350    305.46977    -6212.487   -4983.5516   -5409.6626   -1424.8115 
   29400     298.3527   -6241.9432   -5041.6405   -4736.5736    1020.0695 
   29450    302.01694   -6234.4163    -5019.372   -4892.7146    423.51141 
   29500    307.92161   -6161.1427   -4922.3433   -5224.5916    -1010.645 
   29550    312.59645   -6071.6628    -4814.056   -4453.9246    1204.1918 
   29600    315.74397   -6055.5224   -4785.2529   -4645.0122    468.93066 
   29650    308.62395   -6061.0193   -4819.3943   -4706.6625    376.94798 
   29700    299.96841   -6085.7156   -4878.9127   -5163.6244    -952.0066 
   29750    298.86185   -6099.4404   -4897.0893   -4936.2974   -131.10203 
   29800    300.24423   -6080.0409   -4872.1283   -5048.2461   -588.89483 
   29850    294.94004   -5988.5825   -4802.0093   -4463.1982    1132.9017 
   29900    308.18412   -5917.7816   -4677.9261   -4340.8418    1127.1277 
   29950    305.09311   -5815.5362   -4588.1161   -4082.5837    1690.3773 
   30000    309.29551    -5792.269   -4547.9422   -3764.4045    2619.9594 
   30050    303.59893   -5765.8843   -4544.4754   -3759.5368    2624.6437 
   30100    302.37248   -5794.8692   -4578.3944   -3901.2543    2264.1918 
   30150     294.8205   -5831.2229   -4645.1305   -4174.6655    1573.1205 
   30200     309.2753   -5928.2055     -4683.96   -4380.6023    1014.3544 
   30250     306.8026   -5933.4519   -4699.1543   -4240.5825    1533.3526 
   30300    305.83621   -5964.4452   -4734.0356   -4564.8259      565.796 
   30350    302.15333   -5964.0839   -4748.4909   -4805.0767   -189.20915 
   30400    297.05868   -5932.7892   -4737.6925   -4301.5776    1458.2619 
   30450    295.05577    -5912.328   -4725.2892   -3910.6894    2723.8234 
   30500    302.30147   -5938.1291   -4721.9401   -4162.5353    1870.5134 
   30550    300.21687   -5903.6541   -4695.8516   -4278.7802    1394.5852 
   30600    308.17124   -5871.0618   -4631.2581   -4255.9282     1255.012 
   30650    315.01593   -5846.4079   -4579.0673   -3861.8114     2398.329 
   30700    318.15481   -5865.6863   -4585.7177    -3910.295    2258.4492 
   30750     303.6546   -5895.2726   -4673.6398   -3946.7079    2430.6835 
   30800    299.99661   -5990.5401   -4783.6237   -4497.7348    955.94298 
   30850     301.9822   -6093.0274   -4878.1229   -4830.4506    159.40444 
   30900    295.12161   -6128.2991   -4940.9953   -4825.2251    387.10741 
   30950    297.88043   -6133.8518   -4935.4491   -4777.3633    528.60031 
   31000    308.20276   -6169.3709   -4929.4404    -4982.197    -176.4054 
   31050    304.57462   -6149.3657   -4924.0315   -5048.9705   -417.76546 
   31100    309.18353   -6187.8854   -4944.0091   -5430.0479   -1625.1953 
   31150    294.78569    -6152.759   -4966.8067   -5075.5919   -363.75133 
   31200    299.63527   -6187.7038   -4982.2412   -5302.2518   -1070.0376 
   31250    309.34025   -6210.5943   -4966.0876   -5425.3236   -1535.5733 
   31300     311.4565   -6197.4091   -4944.3884    -5505.793   -1877.2004 
   31350    309.85146   -6199.5605   -4952.9971   -5085.0533   -441.56379 
   31400    301.80775   -6223.1606   -5008.9578   -5512.8465   -1684.8811 
   31450    296.34025   -6223.6324    -5031.426   -5451.4833   -1404.5693 
   31500    304.55994   -6209.1669   -4983.8918    -5446.612   -1547.2238 
   31550    305.90372   -6125.9948   -4895.3136   -4660.3043     785.8139 
   31600    316.88903   -6085.0654   -4810.1891   -4861.5038   -171.58381 
   31650    303.73292   -6012.9564   -4791.0085   -4510.0931    939.31262 
   31700    316.05459   -6044.8014   -4773.2821   -4549.2654    749.05738 
   31750    310.82786   -6030.1413   -4779.6497   -4458.8967    1072.5199 
   31800    297.14975   -6016.9104   -4821.4472   -4756.1786    218.24243 
   31850     299.2462   -6057.8371   -4853.9397   -4758.2453    319.97873 
   31900    299.15876    -6091.287   -4887.7415   -5001.2307   -379.48028 
   31950    300.02604   -6112.2587   -4905.2239    -5162.908   -861.63288 
   32000    304.01569   -6135.1925    -4912.107   -5121.4294   -699.92316 
   32050    294.08764   -6112.7151   -4929.5711   -4783.8477    487.26355 
   32100    305.15599   -6136.2729   -4908.5998   -4991.5947   -277.51487 
   32150    304.62788   -6090.4067   -4864.8583   -4756.4173    362.60003 
   32200    299.48507   -6022.7795   -4817.9211   -4670.6931    492.29471 
   32250    306.26119   -5998.1944   -4766.0751   -4293.8778    1578.9126 
   32300    297.06977   -5930.0646   -4734.9233   -4119.4254    2058.0751 
   32350    319.88251   -5998.8278   -4711.9084   -4212.2363     1670.782 
   32400    307.42255   -5983.5368   -4746.7452   -4167.1342    1938.0781 
   32450    304.08281   -6041.3208   -4817.9653   -4833.7023   -52.620919 
   32500    300.38657   -6086.4001   -4877.9149   -4799.8401    261.06296 
   32550    299.43714   -6119.1599   -4914.4943   -4810.7689    346.83266 
   32600    313.76196   -6210.4178   -4948.1221   -5508.9902   -1875.4064 
   32650    295.57143   -6192.2109   -5003.0975   -5286.7981    -948.6256 
   32700    296.83275   -6231.0475   -5036.8597   -5431.5515   -1319.7533 
   32750    297.27567   -6212.4531   -5016.4833   -5400.9937   -1285.7093 
   32800    308.44532   -6191.6826   -4950.7762   -5069.3732   -396.55951 
   32850    321.08942   -6207.5446   -4915.7697   -5271.3194   -1188.8715 
   32900    288.64257   -6101.0134   -4939.7755   -4877.6971    207.57517 
   32950    304.42174   -6144.7456   -4920.0265   -4927.9589   -26.523959 
   33000    299.61019   -6082.0597   -4876.6979   -4447.7277    1434.3721 
   33050     305.7099   -6059.1684   -4829.2669   -4458.7269    1238.9954 
   33100    303.79062   -6013.5316   -4791.3515   -4455.4397    1123.2075 
   33150    303.23655   -5981.4374   -4761.4865    -4335.117    1425.6756 
   33200    305.39798   -5959.6931   -4731.0465   -4260.0382    1574.9372 
   33250     302.0927   -5896.8064   -4681.4573   -4124.6521    1861.8209 
   33300    310.40938   -5885.2015   -4636.3935    -3676.406    3209.9648 
   33350    318.26783    -5915.043   -4634.6197   -4352.8253    942.25182 
   33400    302.76177   -5889.6916   -4671.6507   -3968.3766    2351.5776 
   33450    299.87535   -5924.9271   -4718.4986   -4211.2914    1695.9775 
   33500    301.85122   -5950.9777   -4736.6001   -4454.6825    942.66379 
   33550    298.94837   -5900.9845   -4698.2853   -3943.1802    2524.8876 
   33600    320.38018   -5935.4981   -4646.5766   -4181.0914    1556.4692 
   33650    303.87825   -5863.8009   -4641.2683   -4034.9244    2027.4666 
   33700    301.78573   -5889.6638   -4675.5496   -4320.9163    1185.8073 
   33750    301.69045   -5916.6361   -4702.9053   -4123.5427    1937.2475 
   33800    309.04664   -5991.2332   -4747.9076   -4412.5529    1121.3448 
   33850    299.79688   -5988.7571   -4782.6443   -4675.1587    359.40593 
   33900    307.50873   -6045.1841   -4808.0458   -5048.0627   -802.55837 
   33950    290.17629   -5981.1631   -4813.7549     -4678.45    452.42671 
   34000    311.80534   -6006.5466   -4752.1225   -4605.4388    490.47457 
   34050    306.78825   -5927.4473   -4693.2074   -3955.1998    2467.7181 
   34100    295.97815   -5833.9514   -4643.2017   -3878.5034    2556.9651 
   34150    318.87447   -5874.3668   -4591.5029   -4069.0153    1747.0714 
   34200     301.9399   -5777.7113   -4562.9769     -3738.87    2755.6131 
   34250    307.60279   -5833.6243   -4596.1076   -4065.3088    1774.8619 
   34300    310.31123   -5876.1653   -4627.7522   -3967.1673    2208.8351 
   34350     299.7925   -5892.4013   -4686.3061   -4078.8574    2031.1604 
   34400    292.39215   -5892.3242   -4716.0014   -4244.0001    1578.2576 
   34450    302.94929   -5868.8664   -4650.0712    -4092.694    1863.7336 
   34500    313.89967   -5809.5413   -4546.6916   -3481.0733    3563.1682 
   34550    323.85801   -5818.9782   -4516.0651   -3995.7379    1739.8474 
   34600    308.28478   -5849.2897   -4609.0292     -3920.03    2303.8458 
   34650    291.89367   -5900.0263   -4725.7089   -4397.8297    1096.3481 
   34700    301.48932   -5974.9837    -4762.062   -4530.7145    773.56975 
   34750    296.83488   -5926.7843   -4732.5879   -4248.5221    1618.5985 
   34800    302.86377   -5875.4207   -4656.9695   -4039.7071    2063.9752 
   34850    320.90168   -5885.0188   -4593.9993   -3999.4436    1988.0496 
   34900    307.88018   -5842.3023   -4603.6696    -3981.294    2081.0725 
   34950    298.17338   -5844.5632   -4644.9819   -4069.3066    1924.9179 
   35000    304.14976   -5891.1467   -4667.5218   -4116.5699    1842.2491 
   35050    296.96199   -5861.5547   -4666.8469   -4039.4816    2097.7568 
   35100    300.83458   -5852.6764   -4642.3888   -4080.0822    1880.2165 
   35150    310.91478   -5890.9882   -4640.1469   -4350.8553    967.32076 
   35200     311.9007   -5941.4961   -4686.6884   -4551.1681    453.14674 
   35250    312.65449   -6019.8104   -4761.9702   -4440.3975    1075.2609 
   35300    297.60376   -6007.0792   -4809.7895   -4600.7431     699.0003 
   35350    301.43127   -6024.8117   -4812.1236   -4584.4287    761.35626 
   35400     316.8611   -6068.4329   -4793.6691   -4637.8161     521.1345 
   35450    314.21478   -6070.4509   -4806.3334   -4952.9574     -490.275 
   35500    300.86978   -6059.7676   -4849.3384   -4897.8073   -162.06807 
   35550    301.50173   -6095.2087   -4882.2371   -5018.4247   -455.37823 
   35600     308.6023   -6125.4563   -4883.9184   -5127.7323   -815.25446 
   35650     298.4854    -6060.021   -4859.1844   -4927.8567   -229.62337 
   35700    309.37998   -6063.8269   -4819.1603   -4848.8773    -99.36649 
   35750    309.77976   -6053.3864   -4807.1114    -4576.806    770.08547 
   35800    292.44053   -6015.8556   -4839.3382   -4622.5657    724.83447 
   35850    300.30043   -6076.5814   -4868.4428   -5071.9312   -680.41574 
   35900     299.7099   -6093.5097   -4887.7469   -5091.2338   -680.41086 
   35950    309.96728   -6146.8754    -4899.846    -5134.007   -782.97725 
   36000    300.35021   -6102.3728   -4894.0339   -4606.8351    960.32286 
   36050    309.53782   -6095.2325   -4849.9309   -4699.0325    504.56751 
   36100    310.01125   -6078.0818   -4830.8756   -4497.4945     1114.745 
   36150    300.61248   -6049.6807   -4840.2867   -4702.8906    459.41901 
   36200     307.0477   -6072.0797   -4836.7961   -4902.2174   -218.75278 
   36250    310.28378     -6047.29   -4798.9873   -4571.0493    762.16941 
   36300    305.49229    -5983.239    -4754.213   -4171.1906    1949.4849 
   36350    305.52299   -5955.2664   -4726.1169    -4486.968     799.6555 
   36400    313.32032   -5964.3476   -4703.8287    -4571.781    441.53523 
   36450     317.7171   -5964.8109   -4686.6032   -4447.0927    800.86494 
   36500    304.85338   -5950.1024   -4723.6467    -4349.162    1252.1857 
   36550     306.0282   -5991.8582   -4760.6761   -4788.9601    -94.57469 
   36600    305.07096   -5989.6352   -4762.3043   -4496.5176    888.72586 
   36650    318.32255   -6024.5504    -4743.907   -4604.5467    465.98685 
   36700    315.90817   -6038.5337   -4767.6036   -4486.8463    938.78415 
   36750    309.28717   -6061.5288   -4817.2356   -4742.9827    248.28344 
   36800    299.90533   -6063.0601    -4856.511   -4921.4304   -217.07482 
   36850    295.27748    -6044.216   -4856.2852   -4560.2507    989.86737 
   36900    294.98118   -5981.2621   -4794.5233   -4411.7606    1279.8651 
   36950    318.79884   -5972.4559   -4689.8963   -4198.0079     1644.755 
   37000    307.67138   -5842.8933   -4605.1006   -3664.8287    3144.0404 
   37050    309.05178   -5831.3837   -4588.0375   -3848.6219     2472.426 
   37100    308.65688   -5820.3561   -4578.5986   -3754.1406     2756.787 
   37150      315.296   -5881.2245   -4612.7572   -3829.6298    2618.5876 
   37200    308.51523   -5935.9983   -4694.8107   -4141.2705    1850.9036 
   37250    297.81872    -5942.095   -4743.9406    -4592.607    506.02245 
   37300     303.9788   -5971.0552   -4748.1181   -4345.4307    1346.4888 
   37350    310.84667    -5982.965   -4732.3978   -4413.4411    1066.5134 
   37400    305.40258   -5965.1366   -4736.4715   -4320.8942    1389.5891 
   37450    307.36102   -6019.6939   -4783.1498   -4738.6723    148.72199 
   37500    318.98438    -6116.748    -4833.442   -5416.5367    -1949.727 
   37550    311.87886    -6146.298   -4891.5782   -5153.5179   -875.86265 
   37600    299.71645   -6183.8651   -4978.0759   -5061.1621   -277.82009 
   37650    300.11831   -6246.8202   -5039.4142   -5117.3476   -260.59023 
   37700    295.30814   -6222.3843   -5034.3301   -5687.3922   -2183.6807 
   37750    317.36944   -6252.4741   -4975.6651   -5107.8179    -441.8868 
   37800    320.93463   -6239.0188   -4947.8667   -5409.0416   -1542.0567 
   37850    296.26169   -6170.5903   -4978.6999   -5066.0639   -292.12369 
   37900    309.33856   -6236.6029   -4992.1029   -5611.8276   -2072.2084 
   37950     311.7515    -6217.865   -4963.6575   -5634.3306   -2242.5675 
   38000    300.64997    -6155.452   -4945.9071   -4972.4542   -88.767126 
   38050    313.63661   -6190.9998   -4929.2083   -5300.9675   -1243.0724 
   38100    298.85409   -6141.2722   -4938.9523   -5035.7988   -323.83109 
   38150     307.1914   -6166.5995   -4930.7378   -5053.1556   -409.33544 
   38200    302.21108   -6140.1765   -4924.3511   -4832.0875    308.50717 
   38250    300.68427   -6129.2723   -4919.5894   -4851.7195    226.94057 
   38300    311.05399   -6144.0601   -4892.6588   -4713.4482     599.2367 
   38350    302.65314   -6117.6182   -4900.0143   -4661.4159    797.81497 
   38400    310.49158   -6173.9712   -4924.8325   -5238.2431   -1047.9689 
   38450    310.20855   -6230.8854   -4982.8854   -5485.3766   -1680.2084 
   38500    292.63968   -6234.9764   -5057.6577   -5628.0188   -1907.1487 
   38550    288.99428   -6226.9589    -5064.306   -5599.1613   -1788.4259 
   38600    312.92675   -6249.6945   -4990.7589   -5516.3564     -1757.47 
   38650    312.58311   -6206.7212   -4949.1681   -5043.2431   -314.56384 
   38700    306.60489   -6191.3719   -4957.8698   -5293.3583   -1121.7918 
   38750    305.41689   -6215.7507    -4987.028   -5490.7605   -1684.3589 
   38800    308.45816   -6243.1085   -5002.1505   -5558.2425   -1859.4366 
   38850    292.28609   -6197.0876   -5021.1914   -5271.1423   -835.77483 
   38900    296.97151   -6186.9871    -4992.241   -5193.7957   -673.94981 
   38950    303.87326   -6136.1763   -4913.6638   -5141.2427   -760.96832 
   39000    312.25135   -6081.2411   -4825.0228   -4723.5382    339.33981 
   39050    308.45953   -6028.2994   -4787.3358   -4763.9441    78.216169 
   39100    303.55249   -6008.0748   -4786.8528   -4751.8249     117.1248 
   39150    307.08307   -6046.8662   -4811.4403   -4750.1315    205.00173 
   39200    296.17339   -6022.8182    -4831.283   -4728.6654    343.12824 
   39250     316.4265   -6084.2504   -4811.2349   -5102.7466   -974.74398 
   39300    294.37271   -6002.7833   -4818.4924   -4234.0309     1954.297 
   39350    305.06821   -6073.2526   -4845.9327   -4888.2206   -141.40037 
   39400    292.35886   -6054.9663   -4878.7774   -4843.9586    116.42565 
   39450    310.00265   -6112.5736    -4865.402   -5211.3674   -1156.8242 
   39500    313.49128   -6089.2639   -4828.0572   -4767.6773     201.8957 
   39550    315.48692   -6118.0747   -4848.8393   -5012.6456   -547.72843 
   39600    302.42408   -6129.5235   -4912.8412   -5345.6564   -1447.2288 
   39650    294.10301   -6109.5525   -4926.3467   -5308.6917   -1278.4686 
   39700    306.51225   -6133.1342   -4900.0048   -5230.4601   -1104.9622 
   39750    317.34306   -6165.2015   -4888.4986    -5021.994   -446.37596 
   39800    306.88087   -6156.0392   -4921.4268   -5160.5084   -799.43064 
   39850    296.28747    -6160.537   -4968.5429    -5519.293   -1841.5744 
   39900    313.52589    -6232.749    -4971.403   -5212.3376   -805.62686 
   39950    311.03807    -6243.686   -4992.3487   -5885.8778   -2987.7439 
   40000    302.68209   -6243.0853    -5025.365   -5662.4838   -2130.3703 
   40050    297.35246   -6249.2887     -5053.01   -5849.6999    -2663.937 
   40100    300.14116   -6250.5347   -5043.0368   -5665.8967   -2082.6919 
   40150    300.35175   -6211.6778   -5003.3327    -5298.254   -986.14512 
   40200    315.96531   -6234.9332   -4963.7731   -5142.8615   -598.82805 
   40250    298.51724   -6162.2426   -4961.2779   -5035.8224   -249.25865 
   40300    305.88226   -6175.3256   -4944.7307   -5110.4833   -554.23635 
   40350    311.18348   -6175.9115   -4923.9892   -4978.6917   -182.91177 
   40400    308.45352   -6158.7224    -4917.783   -4900.4857    57.837962 
   40450    296.51178   -6129.4787   -4936.5821   -4899.2519     124.8234 
   40500    301.21074   -6133.9178   -4922.1169   -5027.0946   -351.01993 
   40550     311.9279   -6141.6477   -4886.7306   -5027.3682   -470.25784 
   40600    307.87029   -6086.5861   -4847.9931   -4715.0636    444.48385 
   40650    311.95582   -6068.7784    -4813.749   -4879.8069   -220.88182 
   40700    297.03512   -6003.0411   -4808.0391   -4288.8369    1736.0857 
   40750    294.75154   -5989.2515   -4803.4365   -4132.0072    2245.0964 
   40800    308.47162   -6007.1388   -4766.1266   -4101.3983    2222.6898 
   40850     302.5338   -5952.3175   -4735.1938    -4176.382    1868.5306 
   40900    297.08763   -5879.9027   -4684.6895   -3905.6917    2604.7791 
   40950     311.3564   -5885.0145   -4632.3965   -4235.7238    1326.3771 
   41000    305.38551   -5826.7628   -4598.1664   -4103.8651    1652.8231 
   41050     305.3997   -5817.9461   -4589.2925    -4118.178    1575.2925 
   41100     312.5605   -5842.8248   -4585.3626   -3711.7525    2921.1398 
   41150    310.03364   -5873.3265   -4626.0301   -3786.5294    2807.0861 
   41200    299.85858    -5893.739   -4687.3779    -4020.557    2229.6867 
   41250     293.0383   -5922.6831   -4743.7607   -4397.3333    1158.3691 
   41300    303.25266   -5953.6601   -4733.6443   -4410.6376    1080.0558 
   41350    312.11681   -5935.1571     -4679.48   -3822.0071    2867.1805 
   41400    319.50529   -5948.6561   -4663.2544   -4485.8897    593.06445 
   41450    308.07605   -5921.7286   -4682.3078   -4151.8793    1773.6239 
   41500    303.59006   -5944.2309   -4722.8577   -4244.5898    1599.2114 
   41550    300.96335   -5983.7794   -4772.9737   -4497.2675    921.89467 
   41600     307.8862   -6032.9565   -4794.2995   -4375.9216     1398.954 
   41650    303.05712   -6032.6674   -4813.4383   -4345.2453    1565.5234 
   41700    311.29988   -6086.2534   -4833.8629   -4932.1474   -328.63937 
   41750    308.58204   -6081.8633    -4840.407   -4987.1173   -490.56353 
   41800    301.83391   -6046.1661   -4831.8581   -4486.1259    1156.0446 
   41850    298.41261   -6001.2209   -4800.6771   -4191.1177    2038.2185 
   41900    309.54011   -5987.9065   -4742.5957   -4152.5769    1972.8794 
   41950    304.90786   -5929.6587   -4702.9839   -4039.7204    2217.7919 
   42000      318.508   -5981.9784   -4700.5888   -4351.0655     1168.721 
   42050    314.80156    -5982.141   -4715.6628   -4485.8186    768.54326 
   42100    309.98075   -5987.0702   -4739.9866   -4369.3495    1239.3205 
   42150    304.58774    -5998.931    -4773.544   -4185.5456    1966.1238 
   42200     308.5146   -6041.1109   -4799.9258   -4525.3226    918.20618 
   42250    307.00428   -6029.5779    -4794.469   -4680.4155    381.36716 
   42300    299.96371   -5971.7209   -4764.9369   -4048.1319    2396.8216 
   42350      304.248   -5936.5785   -4712.5584   -4178.8178    1784.6987 
   42400    303.30695   -5892.8358   -4672.6017   -4007.9652    2222.3826 
   42450    309.49806   -5903.2883   -4658.1467   -4163.4673    1654.0875 
   42500    303.63811   -5889.7924   -4668.2259   -4283.6932    1285.7837 
   42550    304.21014   -5893.7807   -4669.9129   -3952.0815    2400.2535 
   42600    298.56001   -5876.0297    -4674.893   -3908.0267    2564.2141 
   42650    302.01399   -5884.1121   -4669.0797   -3690.9968    3270.4712 
   42700     302.6779   -5874.8492   -4657.1457   -4092.6167    1887.6477 
   42750    295.43417   -5829.9669   -4641.4057   -3951.8563    2305.6855 
   42800    292.72677   -5792.9965   -4615.3275   -3614.5563    3346.3352 
   42850    304.60858   -5813.6877   -4588.2169   -3807.1004    2611.8637 
   42900    305.64315   -5802.4081   -4572.7752   -3822.0123    2510.3682 
   42950    306.52463   -5786.4583   -4553.2791   -3817.4135    2460.5552 
   43000    310.22552   -5818.7728   -4570.7045   -3929.9512    2142.5232 
   43050    313.71325   -5917.4113   -4655.3116   -4160.2578    1655.3394 
   43100    302.56803   -5995.5975   -4778.3361   -4352.7004    1423.2221 
   43150    295.04295   -6062.9507   -4875.9634   -4944.9565   -230.69627 
   43200    292.94887   -6101.2269   -4922.6644   -5071.7535   -498.51787 
   43250    296.05205   -6116.6692   -4925.6222   -4847.0013    262.88889 
   43300    305.69605   -6117.5331   -4887.6874   -4861.9789    85.962951 
   43350    302.95402   -6072.7239   -4853.9096   -4616.2018     794.8369 
   43400    308.80403   -6084.6972   -4842.3477   -4784.0216    195.02854 
   43450    306.34866   -6094.9571   -4862.4859   -4962.7196   -335.15715 
   43500    296.51793    -6054.321   -4861.3997   -4764.1444    325.19786 
   43550    290.70164   -6023.9251   -4854.4034   -4636.8722    727.37137 
   43600    293.35405   -5975.2927   -4795.1001   -4382.8522    1378.4566 
   43650    320.89081   -5960.1848    -4669.209   -3967.3391     2346.882 
   43700    320.31333   -5912.7395    -4624.087   -4060.5609    1884.2942 
   43750    306.86437   -5928.7252   -4694.1792   -4376.0372    1063.7894 
   43800    302.41874   -5964.1991   -4747.5383   -4411.2864    1124.3445 
   43850    306.70994   -6015.8995   -4781.9748   -4340.9163    1474.7923 
   43900    312.20007   -6069.7402   -4813.7282   -4892.5526   -263.56986 
   43950    311.18897   -6106.3768   -4854.4324   -5041.1272   -624.26178 
   44000    308.73479    -6170.595    -4928.524   -5399.3852   -1574.4452 
   44050    298.03774   -6171.1078   -4972.0722    -5426.672   -1520.0712 
   44100    314.76665   -6216.8323   -4950.4946   -5487.8689   -1796.8491 
   44150    309.16221   -6199.1128   -4955.3223   -5302.5155   -1160.9294 
   44200    306.55935   -6220.9405   -4987.6215   -5557.6266   -1905.9582 
   44250    306.08111   -6254.4484   -5023.0535   -5551.4676   -1766.8882 
   44300    302.92593   -6258.5627   -5039.8614   -5452.5109   -1379.7995 
   44350    299.77579   -6245.2679   -5039.2399   -5562.2761   -1748.9057 
   44400    290.81967   -6173.8947   -5003.8981   -5140.3358   -456.21446 
   44450    320.72698   -6208.3763   -4918.0596   -5603.7518   -2292.7881 
   44500    304.59519   -6138.6322   -4913.2153   -5029.3461    -388.3131 
   44550     306.8395   -6161.5632   -4927.1173    -5030.482   -345.62641 
   44600    304.02767   -6168.0936   -4944.9599   -5303.8536    -1200.053 
   44650    304.32013   -6216.0226   -4991.7123   -5458.3886   -1560.4518 
   44700    301.22664   -6277.5775   -5065.7126   -5349.4623   -948.78979 
   44750    289.22462   -6256.0205   -5092.4409   -5881.1959   -2637.4048 
   44800    300.86887   -6245.7337   -5035.3081   -5290.8252   -854.38686 
   44850    309.61815   -6221.4667   -4975.8419   -5188.7583   -711.94045 
   44900    309.94714    -6200.125   -4953.1766   -5046.8204   -313.12179 
   44950    312.21193   -6227.3246   -4971.2648   -5550.1894   -1935.7831 
   45000    300.62896   -6260.4328   -5050.9724    -5438.199   -1294.7913 
   45050    287.33183   -6260.9323   -5104.9676   -5662.2828   -1863.5263 
   45100    295.02453   -6234.8404   -5047.9272   -5336.7058   -965.60543 
   45150    301.26584   -6123.1626   -4911.1401    -4860.702    168.65262 
   45200    314.36983   -6092.2088   -4827.4675   -4718.8697    363.12462 
   45250    305.17115   -6034.2728   -4806.5388   -4418.8521    1296.3297 
   45300    297.49297   -5982.8164   -4785.9725    -4327.463     1533.144 
   45350    299.50316    -5960.783   -4755.8518   -4099.9752    2193.0919 
   45400    309.50954   -5994.6432   -4749.4554   -4373.5078    1257.0773 
   45450    310.54235   -5995.6403   -4746.2974   -4350.6857    1322.8292 
   45500    306.47693   -6002.6136   -4769.6263   -4550.9105    731.33237 
   45550    299.30647   -6022.2655   -4818.1257   -4602.9347     719.5462 
   45600    305.99584   -6075.0952   -4844.0434   -4672.8824    572.32078 
   45650    321.95371   -6114.8437   -4819.5917   -4925.9488   -355.63221 
   45700    314.77399   -6089.7179   -4823.3506   -4699.0592    415.60042 
   45750    297.92092    -6004.916   -4806.3503    -4381.853    1419.4158 
   45800    305.34679   -5967.3447    -4738.904   -4508.5512    770.24363 
   45850    313.68744   -5917.1385   -4655.1426   -4068.3027    1962.2496 
   45900    312.22535   -5901.2906   -4645.1768   -4298.4223    1159.4626 
   45950    312.76661   -5936.9745   -4678.6832   -4259.7071    1400.9541 
   46000    307.58462   -5963.2835   -4725.8399   -4251.5012     1586.073 
   46050    292.53991   -5942.3087   -4765.3914    -4280.114    1622.6494 
   46100    298.13399   -5943.5999   -4744.1771   -4133.5264     2041.867 
   46150    299.92752    -5880.547   -4673.9086   -4005.0349    2236.5507 
   46200    306.48049   -5861.5196    -4628.518   -3839.8397     2637.148 
   46250    309.19139   -5872.9229    -4629.015   -4022.8166    2026.9801 
   46300    295.58375    -5856.445    -4667.282   -4252.9237    1385.5134 
   46350    297.08041   -5901.0401   -4705.8559   -4300.8168    1354.3521 
   46400     304.5595   -5948.4685   -4723.1952   -4280.3445    1480.7851 
   46450    299.84605   -5953.8043   -4747.4937   -4190.5997     1862.118 
   46500    308.81013   -6024.5859   -4782.2119   -4479.5813    1011.9231 
   46550    303.18345   -6053.4277   -4833.6904   -4889.8223   -187.69139 
   46600    306.90058    -6098.162   -4863.4703   -4957.1571   -313.26598 
   46650    304.32412   -6115.0744    -4890.748   -4947.3325   -189.20458 
   46700    298.19246   -6125.8392   -4926.1811   -5024.6327   -329.19828 
   46750    300.67295   -6143.8276   -4934.1903   -4846.9276    291.78538 
   46800     307.8158   -6171.9815   -4933.6077   -5005.5071    -240.4139 
   46850    297.84456   -6128.2681   -4930.0096   -4813.2468    390.42653 
   46900    300.04601   -6140.2116   -4933.0965   -5119.9053   -624.64309 
   46950    312.96136   -6188.1778    -4929.103   -5305.2054   -1257.5951 
   47000    303.85727   -6187.1858   -4964.7377   -5634.0321   -2237.9578 
   47050    293.14265   -6174.5531   -4995.2109   -5303.5587     -1031.04 
   47100    306.16808   -6214.6809   -4982.9361   -5584.8431   -2012.6305 
   47150    307.07139   -6197.4055   -4962.0266   -5434.5548   -1580.0195 
   47200    317.49803    -6233.402   -4956.0757   -5506.0316   -1838.9188 
   47250    305.22639    -6208.352   -4980.3957   -5598.6036   -2067.1368 
   47300    304.34796   -6219.7059   -4995.2836   -5629.1968   -2119.6514 
   47350    315.64518   -6273.2033   -5003.3311   -5716.2367   -2383.7826 
   47400     300.5766   -6263.3794   -5054.1297   -5559.4764   -1689.7563 
   47450    299.04718   -6286.2719   -5083.1752   -5388.4522   -1020.7721 
   47500    301.96505   -6273.7605   -5058.9249   -5816.8782   -2534.4117 
   47550    311.82606   -6240.4972   -4985.9898   -5473.6317   -1630.5558 
   47600     316.3568   -6194.9739   -4922.2389   -5408.3413   -1625.4081 
   47650    308.35678   -6103.9052    -4863.355   -4708.0317    519.36339 
   47700    300.41538   -6029.1069   -4820.5058   -4631.1633    633.11524 
   47750    304.81403   -6010.0454   -4783.7481   -4673.4847    368.69403 
   47800      304.174   -5974.5642   -4750.8418   -4443.2135    1028.6341 
   47850    299.08889   -5899.6225    -4696.358   -4217.3089    1601.8239 
   47900      303.851   -5856.1796   -4633.7566   -3821.3302    2716.5563 
   47950     307.7476   -5841.4988   -4603.3995   -3500.1401    3689.0307 
   48000    309.39493   -5846.4463   -4601.7196   -3610.2413    3315.2621 
   48050    302.90016   -5819.2704   -4600.6727   -3864.2751    2462.3345 
   48100    306.72243   -5870.7297   -4636.7547   -4100.1854    1794.1571 
   48150    311.11769    -5973.463   -4721.8054   -4565.0616    524.11309 
   48200    299.17468   -5995.9064   -4792.2967   -4850.7194   -195.35111 
   48250    299.60118   -6035.1952   -4829.8697   -5279.7494    -1504.288 
   48300    308.50054   -6082.7629   -4841.6344   -4862.0824    -68.37321 
   48350    293.14733   -6032.9083   -4853.5473   -4951.8768   -328.78986 
   48400    311.47387   -6095.3266   -4842.2361   -5162.3753   -1070.4676 
   48450    307.28607   -6103.6416    -4867.399   -4985.5855   -395.18676 
   48500    307.71595   -6152.4807   -4914.5087   -5090.2331   -587.57972 
   48550    302.42128   -6165.0362   -4948.3652   -4978.6595    -101.2967 
   48600    313.96292   -6245.9126   -4982.8084    -5540.499   -1864.7816 
   48650     302.2203   -6270.3168   -5054.4543   -5570.6079   -1725.8921 
   48700    294.41123   -6276.6029   -5092.1571   -5951.6458   -2873.9213 
   48750    304.46351   -6287.6377   -5062.7506   -5691.2078   -2101.4078 
   48800    304.07373   -6226.8629   -5003.5439   -5155.7369   -508.89628 
   48850    311.14486   -6202.1202   -4950.3534   -5142.8857   -643.78148 
   48900    304.57519   -6163.7643   -4938.4279   -4919.6743    62.707235 
   48950    300.92385   -6111.6982   -4901.0515   -4981.4449   -268.81594 
   49000    320.60908   -6144.1671   -4854.3248   -5031.0635   -590.97133 
   49050    309.96053   -6102.7076   -4855.7054   -4990.7654   -451.60789 
   49100    313.69577   -6142.7645    -4880.735   -4823.0101     193.0183 
   49150    286.82625   -6048.5435   -4894.6129   -4635.3679    866.85194 
   49200    304.41936   -6077.1434   -4852.4339   -4579.5758    912.37109 
   49250    307.71178   -6040.1116   -4802.1564   -4525.7336    924.29049 
   49300    299.95715    -5989.597   -4782.8394   -4291.1182    1644.1958 
   49350    301.02531   -5975.0624   -4764.0075   -4250.8896    1715.7416 
   49400    304.05394   -5956.2232   -4732.9838   -4103.5749      2104.59 
   49450    304.62284   -5888.0462   -4662.5181   -3990.4609    2247.1959 
   49500    311.21379   -5850.0691   -4598.0249   -3907.3082    2309.5885 
   49550    306.74431   -5803.0122   -4568.9491   -3693.1282    2928.5321 
   49600    310.41745   -5837.6178   -4588.7774   -3984.4709    2020.6537 
   49650    310.17826   -5871.9537   -4624.0756   -4168.5604    1523.1317 
   49700    298.80462   -5869.6968    -4667.576   -4281.5203    1290.8761 
   49750    299.66847     -5901.44   -4695.8438    -4330.395    1221.9719 
   49800    308.32076   -5940.3854   -4699.9802    -4544.078    521.29911 
   49850    310.62041     -5969.35    -4719.693    -4654.566    217.76875 
   49900    302.67429   -5977.4967   -4759.8078   -4242.5103     1729.717 
   49950     304.6715   -6039.7272   -4814.0033   -4569.6276    817.13302 
  STMD DIG: istep= 50000  TSC1= 50000 Tlow= 1.084553
   50000    291.08059   -6011.1789   -4840.1326   -4469.3569    1239.7837 
   50050    316.70459   -6080.7656   -4806.6314   -4679.5692    424.86503 
   50100    301.05558   -6011.0973   -4799.9206   -4435.1845    1219.5887 
   50150    300.33664   -5976.0626   -4767.7783   -4249.8325    1731.8845 
   50200    303.43068   -5937.8132   -4717.0813   -3973.1473    2487.5342 
   50250    311.78708   -5913.3294   -4658.9788    -4086.349    1914.7346 
   50300    296.63912   -5826.5179   -4633.1091   -3862.5692    2576.4978 
   50350    318.14405   -5901.9504   -4622.0251   -4028.6663    1984.0476 
   50400    313.68374   -5911.6451   -4649.6641   -4133.6528    1725.4161 
   50450     304.3663   -5941.5703   -4717.0742   -4498.6894    730.22572 
   50500    309.30688   -5968.2322   -4723.8597   -4498.6723    752.97195 
   50550    309.11348   -5956.7151   -4713.1207   -4268.1032    1488.0301 
   50600    295.05598   -5927.9764   -4740.9367   -4101.6647    2137.5699 
   50650    305.28371    -5973.466   -4745.2791   -4389.8328    1188.5258 
   50700     296.1955   -5925.6359   -4734.0118   -4293.3692    1473.4017 
   50750    298.03067   -5907.7642    -4708.757   -4095.3464    2051.0959 
   50800     305.3391   -5907.5667    -4679.157   -4027.3327    2179.5418 
   50850     307.7416   -5882.9575   -4644.8823   -4055.7341    1969.9681 
   50900    308.08818   -5854.4154   -4614.9458   -3921.9915    2317.0705 
[...]
  987600     317.0658   -6536.8139   -5261.2264   -6558.3268   -4337.1881 
  987650    288.19674   -6508.9772   -5349.5329   -6630.8611   -4284.4495 
  987700    306.92594   -6576.1191   -5341.3253   -6872.5076   -5119.9009 
  987750    313.61972   -6577.6207   -5315.8972   -6829.8595   -5062.3214 
  987800    300.51788   -6508.5176   -5299.5041   -6526.0342    -4101.218 
  987850    295.13397   -6446.9816   -5259.6281   -6312.2832   -3519.8226 
  987900    319.43429   -6489.3243   -5204.2082    -6553.502   -4511.7102 
  987950    309.12142   -6474.9896   -5231.3633    -6585.509   -4527.9339 
  988000    299.71039   -6509.8832   -5304.1183    -6764.334   -4882.6059 
  988050    301.24186   -6555.9135   -5343.9874   -7102.7412   -5880.8447 
  988100    300.52557   -6584.3697   -5375.3253   -7002.8276   -5441.9718 
  988150    299.96576   -6591.0155   -5384.2233   -7159.7696   -5936.9946 
  988200     299.3942   -6571.7899   -5367.2971   -7023.0229   -5536.3443 
  988250    306.68799   -6588.7079   -5354.8714   -7144.5572   -5984.2736 
  988300    294.92748   -6539.0535   -5352.5308   -7102.6932   -5852.1174 
  988350    294.52413   -6463.0062   -5278.1062   -6526.4342   -4174.1051 
  988400    304.03246   -6395.3633   -5172.2104   -6020.2059   -2835.4907 
  988450    316.15909   -6376.4682   -5104.5286   -6136.1139   -3449.3702 
  988500    309.04733   -6316.8334   -5073.5051   -5693.8124   -2074.1567 
  988550    304.52612   -6284.7348   -5059.5958   -5834.6397   -2591.5581 
  988600    308.22949   -6285.8261    -5045.788   -5878.3204   -2783.7859 
  988650    302.52865   -6288.9801   -5071.8771   -5848.5695   -2597.0704 
  988700    305.88402   -6344.5122   -5113.9102   -5896.1173   -2615.5104 
  988750    296.17873   -6344.0393   -5152.4826   -5616.4953   -1551.5456 
  988800    308.29774   -6395.8437   -5155.5311   -6156.5606    -3347.199 
  988850    298.95608    -6378.002   -5175.2718    -6169.153   -3323.2969 
  988900    309.09519    -6438.353   -5194.8321   -6212.5034   -3402.8452 
  988950     295.9289   -6395.7733   -5205.2217   -6589.6355   -4629.1427 
  989000    307.15794   -6424.1493   -5188.4222   -6115.1382   -3098.7129 
  989050    304.72455   -6428.3401   -5202.4027   -6274.5033   -3584.8436 
  989100    294.65179   -6392.6126    -5207.199   -6365.1965   -3872.0617 
  989150    317.37015   -6470.7409   -5193.9291   -6662.6293   -4910.9762 
  989200    306.35003   -6473.5883   -5241.1115   -6784.0113   -5159.0815 
  989250    302.63702   -6506.8631   -5289.3242   -6711.1966   -4754.3954 
  989300    303.57372   -6551.1705    -5329.863    -7343.367   -6732.6673 
  989350    308.05874   -6593.4971    -5354.146   -7213.2302   -6216.3252 
  989400    305.98545   -6591.2754   -5360.2653   -7422.8467     -6896.77 
  989450    305.49499   -6593.2128   -5364.1759   -7283.7206   -6418.4904 
  989500     313.5071   -6630.3881   -5369.1177   -7125.6302   -5873.3503 
  989550    300.94172   -6625.4459   -5414.7273   -7335.4792   -6422.5268 
  989600    305.28918   -6666.5423   -5438.3334   -7593.8245   -7207.4377 
  989650    303.48642   -6680.4113   -5459.4551   -7524.1079   -6903.6968 
  989700    296.60604   -6658.0136   -5464.7378   -7556.8989   -6995.6774 
  989750    310.52683    -6665.482   -5416.2015   -7661.2315    -7506.834 
  989800    317.15134   -6659.4755    -5383.544   -7591.7135   -7383.5816 
  989850    302.17151   -6625.3369   -5409.6707   -7047.3878   -5476.1275 
  989900    307.75097    -6690.043   -5451.9301    -7439.445   -6645.7663 
  989950    298.94631   -6719.2751   -5516.5842   -7341.3361   -6101.5262 
  990000    292.69208   -6737.5638   -5560.0344   -7696.4367   -7143.6095 
  990050    290.03168   -6723.1113   -5556.2848   -7580.1554   -6767.3308 
  990100    304.59791   -6700.3974   -5474.9695   -7449.3896   -6601.9802 
  990150    298.88005   -6632.1637   -5429.7394   -6826.0959   -4669.0764 
  990200    295.71638   -6617.7743   -5428.0778   -7047.0168   -5413.3381 
  990250    314.94924   -6669.7216   -5402.6493   -7370.4686   -6579.9088 
  990300    294.10111   -6625.1942    -5441.996   -7237.8785   -6004.9939 
  990350    308.99468   -6691.5471   -5448.4306   -7644.0723   -7341.6916 
  990400    309.08614   -6701.7144     -5458.23   -7721.4328   -7567.5997 
  990450    300.40725   -6695.6975   -5487.1292   -7581.1919   -7002.0362 
  990500    308.92904   -6737.6266   -5494.7742   -7626.1361   -7126.7554 
  990550     314.7156   -6782.9005   -5516.7682   -7820.4728   -7703.0277 
  990600    296.86022   -6780.3586   -5586.0602   -7932.0598   -7844.4517 
  990650    300.29688    -6800.018   -5591.8937   -8117.3613   -8444.5492 
  990700    301.31731   -6783.5302   -5571.3006     -7876.35   -7707.5243 
  990750    308.79201   -6742.1775   -5499.8764   -7653.5081   -7201.2205 
  990800    309.21681   -6694.3825   -5450.3724   -7657.7059   -7380.7862 
  990850    310.14916   -6689.4415   -5441.6805   -7700.5463   -7553.0975 
  990900    306.87485   -6692.3632    -5457.775   -7530.7445   -6931.5054 
  990950    304.19768   -6717.9566   -5494.1389   -7763.3673   -7587.7473 
  991000    296.54334   -6722.4026   -5529.3791   -7788.2477   -7553.1068 
  991050    300.53282   -6754.6973   -5545.6237   -7849.5136   -7703.6472 
  991100      304.394   -6757.9303   -5533.3228   -7932.8235   -8023.3462 
  991150    308.18142   -6748.4842   -5508.6395   -7587.9445     -6952.69 
  991200    297.60446   -6693.8213   -5496.5288   -7254.8827   -5879.5075 
  991250    300.00425   -6664.4984   -5457.5514   -7378.4162   -6422.9045 
  991300    303.54609   -6653.1727   -5431.9765   -7265.4734   -6130.7676 
  991350    301.99129   -6634.1563   -5419.2151   -6853.4884   -4795.8607 
  991400    307.64276   -6629.7506    -5392.073   -6946.7803   -5198.5629 
  991450    302.04128      -6610.9   -5395.7577   -7009.2781   -5395.2194 
  991500    311.94133    -6658.358   -5403.3868   -7180.4444   -5942.0482 
  991550     299.3615   -6632.1533    -5427.792   -6860.0365   -4789.0771 
  991600    302.89014    -6666.674   -5448.1167   -7782.6303   -7806.0453 
  991650    302.83926   -6676.8862   -5458.5336    -7689.769   -7460.7081 
  991700    292.75204   -6641.7384   -5463.9677   -7121.4628   -5542.2603 
  991750    305.13242   -6655.2426   -5427.6644    -7077.995   -5518.3039 
  991800    303.38662   -6620.0291   -5399.4744   -6733.7685   -4461.5547 
  991850    314.07605   -6671.6585   -5408.0991    -7411.996   -6700.5435 
  991900    296.16853   -6627.8038   -5436.2882   -7172.6783   -5806.0662 
  991950    303.52078   -6653.0813   -5431.9868    -7409.749   -6613.1553 
  992000    303.64045   -6608.8062   -5387.2304   -7101.2526   -5731.2732 
  992050    306.34876   -6564.0457    -5331.574   -6951.1108   -5415.3369 
  992100    324.45503   -6603.1348   -5297.8198    -7029.568   -5790.5448 
  992150    311.54779   -6602.9512   -5349.5633   -7234.1172   -6301.4897 
  992200    293.61451   -6613.6959   -5432.4553   -7080.8917   -5511.9701 
  992250    301.04207   -6654.9664    -5443.844    -7479.476   -6806.6577 
  992300    307.50364   -6669.9136   -5432.7957   -7670.2276   -7481.4276 
  992350    307.11386   -6692.0617    -5456.512   -7789.9997    -7802.615 
  992400    305.70997   -6704.3769   -5474.4752   -7967.0721   -8334.6375 
  992450    309.29008    -6718.559   -5474.2541   -7687.6199   -7400.9566 
  992500    296.90775   -6674.4033   -5479.9138   -7311.6587   -6124.9092 
  992550     292.9235   -6630.8204   -5452.3599   -6913.6804   -4886.3004 
  992600    294.10619   -6591.7022   -5408.4836    -6884.755   -4936.2924 
  992650    314.81618    -6614.134    -5347.597   -6866.1311   -5077.6084 
  992700     311.0367    -6577.989   -5326.6573   -6713.6981   -4637.9271 
  992750    300.66257   -6540.5822   -5330.9867   -6626.8632   -4333.0958 
  992800    300.15441   -6527.6655   -5320.1143   -6998.2369   -5611.2334 
  992850     301.9403    -6513.297    -5298.561   -6499.2628   -4014.8545 
  992900    306.18812   -6519.1586   -5287.3332   -6606.7977   -4411.9679 
  992950    314.22291   -6546.3821   -5282.2319   -6961.4206   -5614.7985 
  993000    306.01613   -6535.3093   -5304.1759   -6656.0805     -4520.44 
  993050    304.81009   -6598.6895    -5372.408   -7193.8047   -6090.3073 
  993100    287.95522   -6594.6144   -5436.1418   -7267.2941   -6122.9276 
  993150     301.6915   -6612.3789   -5398.6439   -7355.7878    -6544.213 
  993200    294.64907   -6540.3128   -5354.9101   -6607.0116   -4186.7225 
  993250     309.5107   -6551.6165    -5306.424   -6763.5116   -4872.1465 
  993300    307.85391   -6545.1994   -5306.6723   -6784.4287   -4941.2577 
  993350    309.93205   -6582.5765   -5335.6889   -6983.6844   -5510.4959 
  993400    299.64201    -6583.326   -5377.8362   -7053.4555   -5602.8629 
  993450    308.74141    -6621.921   -5379.8235   -6954.1865   -5264.2869 
  993500    299.91889   -6614.3851   -5407.7814   -6945.2255   -5140.8391 
  993550    297.74217   -6599.9443   -5402.0978   -6987.3378   -5300.6567 
  993600    314.91596   -6598.1219   -5331.1836   -6724.9118   -4660.2882 
  993650    296.32333   -6510.5335   -5318.3951   -6599.2208   -4282.7694 
  993700    294.07842    -6474.925   -5291.8181    -6549.814   -4206.4321 
  993750    304.85996   -6479.0988   -5252.6167   -6588.7738   -4467.7841 
  993800    310.59361   -6452.5763   -5203.0272   -6143.9245   -3146.1318 
  993850    316.46243   -6446.2775   -5173.1175   -6434.5328   -4217.8657 
  993900    299.66935   -6432.8633   -5227.2635   -6242.7663   -3395.5943 
  993950    305.94489   -6509.3156   -5278.4687   -6440.2983   -3884.8753 
  994000    294.26249   -6494.1703   -5310.3229   -6493.8126   -3957.3015 
  994050     309.2314   -6526.3184   -5282.2496   -6774.1502   -4988.5525 
  994100    310.20335    -6501.371   -5253.3919   -6319.6517   -3565.3134 
  994150     306.1628   -6495.1016   -5263.3781   -6409.5832   -3832.6309 
  994200    299.61134   -6502.4368   -5297.0704   -6169.9633   -2918.7413 
  994250    302.80669   -6545.7386    -5327.517   -7086.7142   -5882.3276 
  994300    311.79805   -6602.5078   -5348.1131   -7211.5667   -6230.9353 
  994350     303.4113   -6620.4191   -5399.7651   -7329.3715   -6452.1343 
  994400     297.4631   -6629.0762   -5432.3524   -7248.8091   -6073.7893 
  994450    291.76675   -6585.5506   -5411.7438   -7074.9672   -5561.4145 
  994500    306.35706    -6543.971    -5311.466   -6697.0667   -4633.1118 
  994550    312.32659   -6496.0372   -5239.5162   -6357.0024   -3736.6022 
  994600     302.7885   -6448.9311   -5230.7827   -6486.6813   -4199.4194 
  994650    306.36579   -6444.8434   -5212.3032   -6437.5221   -4096.8338 
  994700    299.30579   -6401.4653   -5197.3282   -5953.4021   -2528.1271 
  994750    309.55763   -6417.5486   -5172.1673   -5961.2291   -2638.4308 
  994800    306.04986   -6403.3517   -5172.0825   -6457.5997   -4298.4568 
  994850    302.71264    -6380.431   -5162.5878   -5853.6625   -2310.7858 
  994900    311.23197   -6408.9112   -5156.7939   -6151.2277   -3325.1446 
  994950    309.27397   -6415.1748   -5170.9347   -6288.2184   -3735.9246 
  995000    309.35643   -6430.6379   -5186.0661   -6154.7654   -3239.0949 
  995050    309.21617   -6449.1555   -5205.1479   -6389.3922   -3959.8248 
  995100    300.31805   -6468.5323   -5260.3228   -6556.7887   -4335.0666 
  995150    291.12952     -6498.07   -5326.8268   -6717.3197   -4649.4699 
  995200    318.77207   -6590.4949    -5308.043    -6938.036   -5450.2999 
  995250    302.01943   -6555.0947   -5340.0403   -6981.0347    -5487.086 
  995300    319.75817   -6639.5838   -5353.1647   -7246.8337   -6331.9682 
  995350    291.03787   -6584.1337   -5413.2592    -7318.803   -6371.6747 
  995400    299.59989   -6589.8406   -5384.5203   -6951.4785    -5239.527 
  995450    303.00162   -6556.7743   -5337.7685   -6759.5729   -4754.1679 
  995500    305.42374   -6522.2138   -5293.4635   -6867.8877   -5264.4911 
  995550    296.80605   -6452.4576   -5258.3772   -6378.6056   -3745.7712 
  995600    309.20455   -6466.8801   -5222.9193   -6560.0824   -4471.1482 
  995650    311.62054   -6473.5911   -5219.9105   -6573.3247   -4525.4877 
  995700    308.73185   -6472.8782   -5230.8191   -6502.4239   -4251.9371 
  995750    308.14923   -6535.8135   -5296.0984   -6792.4396    -5003.401 
  995800    303.32708   -6579.5658   -5359.2506   -7004.7241   -5502.0628 
  995850    304.32181   -6605.4342   -5381.1171    -7145.384   -5899.2791 
  995900      294.814   -6581.5455   -5395.4793   -7078.3383    -5627.071 
  995950    300.67087   -6568.8375   -5359.2085   -6815.9039   -4870.8348 
  996000    297.58396   -6497.5238   -5300.3138   -6386.0937   -3630.5837 
  996050    312.60495   -6485.5593   -5227.9183   -6248.8806   -3413.8494 
  996100    309.73205   -6460.3175   -5214.2345   -6254.8705   -3479.6333 
  996150    292.95319   -6402.8882   -5224.3083   -6258.6833   -3458.6986 
  996200    310.42013   -6431.4327   -5182.5815   -6370.8251   -3973.1975 
  996250    309.79948   -6379.8371   -5133.4828   -5927.3886   -2654.6278 
  996300    312.70284    -6355.127   -5097.0922   -5720.0915   -2083.1582 
  996350    304.92244   -6342.5593   -5115.8259   -5599.9436   -1618.7718 
  996400    294.93797   -6318.7226   -5132.1577   -5791.0505    -2203.177 
  996450     304.8663   -6323.8969   -5097.3893   -5651.3535   -1852.3214 
  996500    311.29632   -6320.8848   -5068.5085   -5590.6734   -1745.9923 
  996550    298.69814    -6301.432   -5099.7396   -5649.5931   -1838.5763 
  996600    296.33723   -6303.6509   -5111.4566   -5783.0652   -2245.6957 
  996650    305.34632   -6323.2761   -5094.8373   -5697.5034   -2015.1688 
  996700    302.29397   -6302.8132   -5086.6544   -5497.0274   -1372.1875 
  996750    307.02099   -6300.8264   -5065.6503   -5454.3203   -1299.6182 
  996800    290.21866   -6225.6262   -5058.0475   -5208.9503   -504.58214 
  996850    308.90157   -6261.3972   -5018.6553    -5546.595    -1765.302 
  996900    309.71068   -6227.0712   -4981.0742   -5254.5548   -914.45271 
  996950    313.90855   -6239.8113   -4976.9258    -5408.724    -1443.828 
  997000    307.84504   -6224.4137   -4985.9224    -5415.853   -1437.5836 
  997050    297.25035    -6186.282   -4990.4141   -5200.2665   -701.69511 
  997100     307.3748   -6240.3735   -5003.7739    -5444.593   -1473.9917 
  997150    309.14514   -6251.1912   -5007.4694   -5383.6979   -1258.0164 
  997200    312.58419   -6261.6021   -5004.0446   -5434.4629   -1439.2139 
  997250    300.42631   -6207.0865   -4998.4414   -5076.2607   -260.20852 
  997300    294.08682   -6191.1467   -5008.0061   -5445.5174   -1462.9313 
  997350    297.51894   -6179.0643   -4982.1159   -5347.3277   -1221.1796 
  997400    307.10711   -6149.0709   -4913.5483   -5056.6905   -478.63265 
  997450    313.03254   -6120.5167   -4861.1555    -4710.917    502.36089 
  997500    306.15899    -6105.037   -4873.3288   -5009.0777   -453.91123 
  997550    302.33926   -6142.6077   -4926.2666   -5486.6591   -1873.8161 
  997600    299.70935   -6163.3457    -4957.585   -5492.1743   -1787.5366 
  997650    308.40049    -6183.655    -4942.929   -5268.6072   -1088.9887 
  997700    305.59765    -6155.928   -4926.4781    -4886.595    133.35953 
  997750    317.05975   -6188.4325   -4912.8695    -5188.714    -922.3572 
  997800    313.55737   -6196.2275   -4934.7548   -5330.0224   -1321.6784 
  997850    306.07265   -6224.0523   -4992.6914   -5350.0194   -1194.8178 
  997900    287.72533   -6171.2702   -5013.7224   -5194.7045   -605.15985 
  997950    302.38895   -6180.2426   -4963.7016   -4803.9021    534.33088 
  998000     306.5102   -6152.6241   -4919.5029    -4797.608    407.58705 
  998050    301.54402   -6145.3781   -4932.2364      -5003.9   -239.62577 
  998100    301.36448   -6168.5872   -4956.1678   -5087.5421   -439.28367 
  998150    286.95394   -6119.4682   -4965.0238   -4765.1571    668.30563 
  998200     301.7576   -6144.6915   -4930.6905   -5065.8639   -451.98685 
  998250    308.57285   -6105.2532   -4863.8338   -4971.6507   -360.51329 
  998300    315.74707   -6089.8553   -4819.5733   -4928.7341   -365.00689 
  998350    311.08532    -6098.051   -4846.5237   -4946.1566   -333.14825 
  998400    302.10107   -6111.2439   -4895.8611   -5119.0507   -746.29178 
  998450    305.26762   -6143.3276   -4915.2055   -5224.5046   -1034.2211 
  998500    296.12906    -6105.681   -4914.3242   -5077.3979   -545.27874 
  998550    318.80171   -6191.1817   -4908.6106   -5322.9514    -1385.455 
  998600    327.32291   -6231.8474   -4914.9946   -5367.2793   -1512.3297 
  998650    310.32708   -6220.3823   -4971.9054   -5448.0134   -1591.9893 
  998700     302.4212   -6274.6738   -5058.0031   -5498.0664   -1471.4648 
  998750    304.66201   -6326.5514   -5100.8657   -5951.9052   -2845.6688 
  998800    313.57128   -6356.3573   -5094.8288   -5617.0707   -1746.2499 
  998850    290.79467   -6292.9485   -5123.0525   -5841.7456   -2403.1349 
  998900    304.63289   -6365.0389   -5139.4703   -6120.8796   -3281.5939 
  998950     304.7416   -6365.8482   -5139.8423    -5818.417   -2268.9889 
  999000    300.48981   -6338.2381   -5129.3376     -5700.74   -1910.6307 
  999050    300.00638   -6303.8304   -5096.8747   -5394.0488   -993.67775 
  999100    313.73077   -6318.7444   -5056.5742    -5615.537   -1869.0357 
  999150    311.89056   -6292.4861   -5037.7192   -5416.5101   -1266.5844 
  999200    300.60906   -6264.2866   -5054.9063     -5585.66   -1774.7109 
  999250    301.87455   -6278.1357   -5063.6642   -5532.3958   -1567.3245 
  999300    315.20237   -6309.7123   -5041.6217   -5797.8176   -2528.5351 
  999350    294.75598   -6238.5332   -5052.7005   -5355.4852   -1012.4385 
  999400    314.09545   -6289.1609   -5025.5235   -5549.0657   -1750.5977 
  999450    308.53421   -6244.8915   -5003.6275   -5450.7332   -1495.0127 
  999500    307.01183    -6227.061   -4991.9217   -5117.2494   -419.06518 
  999550    308.61121   -6228.0765   -4986.5028   -5229.2597   -811.72026 
  999600    297.70843   -6200.7725   -5003.0617   -5382.1667   -1267.6346 
  999650     316.0724   -6284.9736   -5013.3828   -5741.2356   -2433.7628 
  999700    301.62651    -6269.432   -5055.9584   -5694.0109   -2133.4924 
  999750    315.65733   -6371.8725   -5101.9515   -6360.8621   -4209.4905 
  999800    301.98234   -6376.5727   -5161.6676   -6165.1833   -3355.5124 
  999850    301.40772        -6418   -5205.4066   -6520.8149   -4398.4053 
  999900    304.83331   -6425.1713   -5198.7964   -6486.0398   -4304.2287 
  999950    297.31651   -6335.8614   -5139.7274   -5943.1356   -2686.4015 
 1000000    308.96668    -6303.118   -5060.1142   -5870.1907   -2708.6989 
Loop time of 2611.91 on 16 procs for 1000000 steps with 2004 atoms

Performance: 66.159 ns/day, 0.363 hours/ns, 382.862 timesteps/s
100.0% CPU use with 16 MPI tasks x 1 OpenMP threads

MPI task timing breakdown:
Section |  min time  |  avg time  |  max time  |%varavg| %total
---------------------------------------------------------------
Pair    | 1606.8     | 1630.5     | 1662.8     |  46.8 | 62.43
Bond    | 0.90656    | 4.7944     | 12.964     | 190.5 |  0.18
Kspace  | 425.85     | 463.07     | 489.19     |  93.9 | 17.73
Neigh   | 140.67     | 141.48     | 143.26     |   6.6 |  5.42
Comm    | 204.96     | 214.66     | 219.73     |  32.8 |  8.22
Output  | 0.65375    | 0.66783    | 0.7426     |   2.4 |  0.03
Modify  | 145.84     | 147.17     | 149.83     |  10.6 |  5.63
Other   |            | 9.537      |            |       |  0.37

Nlocal:    125.25 ave 145 max 116 min
Histogram: 4 2 2 3 1 1 2 0 0 1
Nghost:    4133 ave 4172 max 4081 min
Histogram: 1 2 1 2 0 2 2 2 1 3
Neighs:    44224.2 ave 52264 max 40984 min
Histogram: 5 1 4 2 2 1 0 0 0 1

Total # of neighbors = 707588
Ave neighs/atom = 353.088
Ave special neighs/atom = 2.34032
Neighbor list builds = 82751
Dangerous builds = 0

#write_restart     restart.peptide.*
#write_data        data.peptide.${rep}
Total wall time: 0:43:32
