LAMMPS (22 Aug 2018)
units           real
atom_style      full

pair_style        lj/charmm/coul/long 8.0 10.0 10.0
bond_style        harmonic
angle_style       charmm
dihedral_style    charmm
improper_style    harmonic
kspace_style      pppm 0.0001

# Define variables
variable tlo equal 150
variable thi equal 350
variable rep equal 0
variable temp equal 305.0
variable steps equal 100000

read_data         data.peptide
  orthogonal box = (36.8402 41.0137 29.7681) to (64.2116 68.3851 57.1395)
  1 by 2 by 3 MPI processor grid
  reading atoms ...
  2004 atoms
  reading velocities ...
  2004 velocities
  scanning bonds ...
  3 = max bonds/atom
  scanning angles ...
  6 = max angles/atom
  scanning dihedrals ...
  14 = max dihedrals/atom
  scanning impropers ...
  1 = max impropers/atom
  reading bonds ...
  1365 bonds
  reading angles ...
  786 angles
  reading dihedrals ...
  207 dihedrals
  reading impropers ...
  12 impropers
  4 = max # of 1-2 neighbors
  7 = max # of 1-3 neighbors
  14 = max # of 1-4 neighbors
  18 = max # of special neighbors
#read_data         data.peptide.${rep}

neighbor          2.0 bin
neigh_modify      delay 5

timestep          2.0

thermo_style      custom step temp pe etotal enthalpy press
thermo            50

fix               fxnvt all nvt temp ${temp} ${temp} 100.0 tchain 1
fix               fxnvt all nvt temp 305 ${temp} 100.0 tchain 1
fix               fxnvt all nvt temp 305 305 100.0 tchain 1
fix	              fxSTMD all stmd ${steps} constant_f 0.001 ${tlo} ${thi} -8500 -5500 12 10000 100000 fxnvt no
fix	              fxSTMD all stmd 100000 constant_f 0.001 ${tlo} ${thi} -8500 -5500 12 10000 100000 fxnvt no
fix	              fxSTMD all stmd 100000 constant_f 0.001 150 ${thi} -8500 -5500 12 10000 100000 fxnvt no
fix	              fxSTMD all stmd 100000 constant_f 0.001 150 350 -8500 -5500 12 10000 100000 fxnvt no
fix               2 all shake 0.0001 10 0 b 4 6 8 10 12 14 18 a 31
  19 = # of size 2 clusters
  6 = # of size 3 clusters
  3 = # of size 4 clusters
  640 = # of frozen angles

group             peptide type <= 12
84 atoms in group peptide
#dump              mydump peptide dcd 1000 ${rep}.dcd
#dump_modify       mydump pad 8
#dump_modify       mydump unwrap yes

run               ${steps}
run               100000
PPPM initialization ...
  using 12-bit tables for long-range coulomb (../kspace.cpp:321)
  G vector (1/distance) = 0.268725
  grid = 15 15 15
  stencil order = 5
  estimated absolute RMS force accuracy = 0.0228209
  estimated relative force accuracy = 6.87243e-05
  using double precision FFTs
  3d grid and FFT values/proc = 3696 675
Neighbor list info ...
  update every 1 steps, delay 5 steps, check yes
  max neighbors/atom: 2000, page size: 100000
  master list distance cutoff = 12
  ghost atom cutoff = 12
  binsize = 6, bins = 5 5 5
  1 neighbor lists, perpetual/occasional/extra = 1 0 0
  (1) pair lj/charmm/coul/long, perpetual
      attributes: half, newton on
      pair build: half/bin/newton
      stencil: half/bin/3d/newton
      bin: standard
  STMD DIG: istep=0  TSC1=10000 Tlow=1.147104
STMD: STAGE=1, #bins=251  binsize=12.000000
  Emin=-8500.000000 Emax=-5500.000000 f-value=1.024290 df=0.001000
  f-tolerances: STG3=1.000480 STG4=1.000048
Per MPI rank memory allocation (min/avg/max) = 15.52 | 15.6 | 15.92 Mbytes
Step Temp PotEng TotEng Enthalpy Press 
       0    303.06656   -6135.9847   -4916.7176   -4142.6592    2588.2629 
      50    290.59402   -6017.9277   -4848.8389   -4461.0573    1296.6474 
     100    312.22832   -5952.8695   -4696.7438   -3921.0778    2593.6385 
     150    311.15712    -5822.497   -4570.6808   -3843.7681    2430.6194 
     200     314.7213   -5777.0156   -4510.8603   -3924.6803    1960.0432 
     250    322.39357   -5830.8803   -4533.8588   -3652.9154    2945.6601 
     300    296.06091   -5819.3639   -4628.2813   -4229.6536    1332.9138 
     350    297.02031    -5890.962   -4696.0196   -4362.0736    1116.6342 
     400    294.55126   -5858.6226   -4673.6135   -4147.0971    1760.5425 
     450    316.07736   -5873.6504   -4602.0396   -4071.4148    1774.2802 
     500    316.83874   -5831.8381   -4557.1642    -3701.026    2862.7177 
     550    305.37311   -5834.4024   -4605.8559   -3713.4769    2983.8981 
     600    297.50198   -5892.2674   -4695.3871   -4127.8432    1897.7288 
     650    293.76639   -5920.8319   -4738.9804    -4253.714    1622.6126 
     700     296.3646   -5879.7993   -4687.4949   -4091.1581    1994.0051 
     750    310.23763   -5847.3492   -4599.2322   -3800.5132    2670.7218 
     800    311.56618   -5826.4785   -4573.0166   -3753.0062    2741.9153 
     850    306.92488   -5859.7604    -4624.971   -4321.4368    1014.9445 
     900     303.0684   -5903.4158   -4684.1414   -4192.7306     1643.158 
     950    299.26612   -5915.2352   -4711.2576   -4043.3221    2233.4138 
    1000    304.00353   -5925.8735   -4702.8369   -4193.1098    1704.4033 
    1050    306.21922   -5901.0908   -4669.1402   -4092.8171    1927.0844 
    1100    305.06844   -5870.6679   -4643.3471   -4096.7896    1827.5554 
    1150     303.7014   -5869.8024   -4647.9813    -3927.347    2409.6259 
    1200    306.04519   -5892.9147   -4661.6642   -4213.9231    1497.1374 
    1250    305.24667   -5867.2311   -4639.1932   -4109.6811    1770.5596 
    1300    307.13269   -5837.0229   -4601.3974   -3803.9917    2666.3306 
    1350    308.22131    -5837.732   -4597.7269   -3965.1178    2115.2909 
    1400    318.07086   -5953.5121   -4673.8813   -3979.0986     2323.184 
    1450    292.08397   -5945.9634   -4770.8804   -4211.0147    1872.0545 
    1500    290.97743    -5958.757   -4788.1257   -4214.1975    1919.0763 
    1550     313.5868   -5974.1828   -4712.5918     -3957.59    2524.5424 
    1600    306.08463   -5862.2283   -4630.8192   -3885.2354    2493.0507 
    1650       310.94    -5833.888   -4582.9453     -3604.28    3272.4186 
    1700     314.4787   -5884.7727   -4619.5935   -3992.9444    2095.3622 
    1750    295.11925   -5895.9314   -4708.6372   -4341.6299    1227.1831 
    1800    295.58261   -5960.2945   -4771.1361   -4134.6136    2128.3763 
    1850    313.88428   -6053.6246   -4790.8367   -4103.4216    2298.5491 
    1900    296.83111    -5955.324   -4761.1427   -3875.3709    2961.8053 
    1950    300.66781   -5926.4796   -4716.8629   -3929.6337    2632.3028 
    2000    303.72486   -5882.0011   -4660.0857    -4488.782     572.7977 
    2050     299.5306   -5830.7131   -4625.6716   -3782.2938    2820.0501 
    2100    299.48047   -5811.7803   -4606.9404   -4068.6879    1799.7855 
    2150    311.28252   -5871.1615   -4618.8408   -4017.2173    2011.6823 
    2200    301.02711   -5866.3523   -4655.2901   -4248.8393    1359.0727 
    2250    305.80607   -5933.9422   -4703.6538   -4272.9874    1440.0435 
    2300     296.2462   -5905.0616   -4713.2336   -4497.8586    720.16135 
    2350    315.71059    -5962.602   -4692.4668   -4104.5151    1965.9672 
    2400    308.27959   -5921.2056    -4680.966   -4271.2036     1370.146 
    2450    292.61884   -5839.1501   -4661.9153   -3805.6513    2863.1383 
    2500    318.36573   -5939.2973   -4658.4801   -4201.0011    1529.6986 
    2550    311.15661   -5973.9314   -4722.1173   -4381.0749    1140.3625 
    2600    297.20234   -5984.2062   -4788.5315   -4371.4189     1394.723 
    2650    301.18278    -6019.129   -4807.4406   -4153.2099    2187.5883 
    2700    303.52983   -5954.0098   -4732.8789   -4428.3046    1018.4224 
    2750    304.96743   -5826.7493   -4599.8348   -3666.9279    3119.4138 
    2800    321.95591   -5783.0476   -4487.7868   -3966.8566     1741.864 
    2850    320.78922   -5781.7583   -4491.1912   -3907.6082    1951.3595 
    2900    306.96697    -5851.821   -4616.8623   -4197.5708    1402.0087 
    2950    299.47937   -5937.9691   -4733.1337   -4482.7455    837.23708 
    3000    296.77699   -5986.5358   -4792.5723   -4572.6291    735.43675 
    3050    305.39666    -6011.989   -4783.3477   -4702.4386    270.54039 
    3100    315.67671   -5993.1032   -4723.1042   -4418.0216    1020.1222 
    3150    301.22865   -5914.5924   -4702.7194   -4103.5105     2003.609 
    3200     299.4037   -5905.5496   -4701.0186   -4013.2717     2299.658 
    3250    300.72216   -5901.3001   -4691.4648   -4241.0201    1506.1777 
    3300     300.9054     -5875.05   -4664.4775   -3899.3663    2558.3455 
    3350    305.81365   -5838.3444   -4608.0256   -3927.0277    2277.0912 
    3400    315.88165   -5839.1447   -4568.3212   -4091.5296     1594.275 
    3450    307.70423   -5808.3869    -4570.462   -3754.1437    2729.5698 
    3500    300.86119   -5842.3596   -4631.9649   -4032.9829      2002.85 
    3550    301.66298   -5932.4911   -4718.8708   -4495.9239    745.48025 
    3600    292.88629   -5909.6977   -4731.3869   -4154.3612    1929.4335 
    3650    306.47544    -5917.583   -4684.6016   -4015.9092    2235.9448 
    3700    316.51266   -5941.1794   -4667.8174   -4361.2213    1025.1825 
    3750    312.09556   -5957.5643   -4701.9727   -4447.8249     849.8084 
    3800    295.57069   -5966.7838   -4777.6733   -4289.9421    1630.8544 
    3850    295.36431   -6000.2099   -4811.9298   -4940.7445   -430.72516 
    3900    304.72677   -5983.7494   -4757.8031   -4592.0023    554.39752 
    3950    314.81994   -5954.1237   -4687.5716   -4153.6972    1785.1462 
    4000    306.71458   -5908.7501   -4674.8066   -3881.2758    2653.3739 
    4050    302.74019   -5903.8119   -4685.8579   -4302.9458    1280.3647 
    4100    315.77208   -5938.1392   -4667.7566   -4470.8662    658.35331 
    4150    315.88126   -5924.4362   -4653.6144   -4409.9673    814.69641 
    4200    293.24514   -5841.7206   -4661.9661   -3884.8195     2598.589 
    4250    296.73455   -5849.0781   -4655.2854   -3946.1978    2371.0162 
    4300    311.41929   -5862.4114   -4609.5405   -3792.1341    2733.2083 
    4350    312.10873   -5852.1983   -4596.5537   -3838.3878    2535.1222 
    4400    307.60401   -5851.1434   -4613.6217   -3979.5324    2120.2405 
    4450    315.73698   -5922.0637   -4651.8222   -4311.0606    1139.4241 
    4500    307.23606   -5965.9488   -4729.9074   -4390.0449    1136.4173 
    4550    303.75691   -6016.4415    -4794.397   -4576.5493    728.42975 
    4600     296.9559   -6028.7498   -4834.0665   -4631.3263    677.91406 
    4650    303.31387     -6048.55    -4828.288   -4278.6963    1837.7008 
    4700    299.15807   -5990.7802   -4787.2373   -4121.2436     2226.921 
    4750    312.55165   -5997.4213   -4739.9947   -4718.4771    71.949652 
    4800    302.07269   -5939.0887   -4723.8201   -4550.7513    578.69972 
    4850    304.84365   -5942.0401   -4715.6237   -4758.6187   -143.76472 
    4900     312.1702   -5955.6087   -4699.7168   -4635.5225    214.65008 
    4950    295.24663   -5871.0268   -4683.2201    -4492.198    638.73123 
    5000    307.72886   -5891.3816   -4653.3577    -4052.853    2007.9414 
    5050    302.50036   -5871.0045   -4654.0153   -4073.8016    1940.0933 
    5100    299.54003   -5844.3631   -4639.2837   -3838.7182     2676.896 
    5150    307.66784   -5863.8036   -4626.0252   -3811.5623    2723.3656 
    5200    322.47517   -5956.2653   -4658.9155    -4472.625    622.91009 
    5250    293.19126   -5943.9469   -4764.4092   -4613.1987    505.61107 
    5300    296.49955    -6036.456   -4843.6087    -4397.858    1490.4819 
    5350    293.03416   -6016.4167    -4837.511   -4277.2043    1873.5294 
    5400    305.79472   -5989.7884   -4759.5457   -4654.0774    352.66055 
    5450    314.73984   -5965.9385   -4699.7087   -4223.6462    1591.8371 
    5500    308.51812   -5952.9278   -4711.7285   -4610.1534    339.64248 
    5550     307.2331   -6009.6966   -4773.6672   -4574.3828    666.35845 
    5600    294.27864   -6025.0002   -4841.0878   -4648.2004    644.96843 
    5650    285.26247   -5999.3153   -4851.6759    -4600.806    838.84782 
    5700    304.94502   -5994.9691   -4768.1448   -4583.8828     616.1274 
    5750    319.67627   -5975.0962   -4689.0066   -4099.3755    1971.5831 
    5800    306.53428   -5929.6125   -4696.3944   -4422.8729     914.5893 
    5850    298.31821   -5921.1997   -4721.0357   -4175.6376    1823.6787 
    5900    289.08401   -5920.3149   -4757.3011   -4183.0757    1920.0701 
    5950    312.85858   -6041.5662   -4782.9049   -4610.4375    576.68903 
    6000    304.05772   -6033.3044   -4810.0498   -4722.9098    291.37496 
    6050    298.09518   -6039.3534   -4840.0867   -4535.5592    1018.2658 
    6100    289.96525   -5997.5981   -4831.0389   -4823.4231    25.465196 
    6150     310.1039   -5994.5323   -4746.9534   -4309.7671    1461.8446 
    6200     305.5289   -5890.2119   -4661.0385   -4221.6097     1469.343 
    6250    303.86257   -5819.7048   -4597.2353   -3927.0659    2240.8833 
    6300    317.09785   -5827.0161   -4551.2998   -3940.7976     2041.371 
    6350    317.12378   -5800.9449   -4525.1243   -3793.8248    2445.2876 
    6400    305.66401   -5802.3631   -4572.6463   -3887.5428    2290.8194 
    6450    304.58031   -5895.1529   -4669.7958   -4230.3601    1469.3662 
    6500    292.36674    -5893.397   -4717.1763   -4097.3078    2072.6895 
    6550    300.17684   -5947.0269   -4739.3854   -4185.7542    1851.2081 
    6600    298.97449   -5965.1241   -4762.3199   -4412.6566    1169.1887 
    6650    315.63529   -6052.0789   -4782.2466    -4576.014    689.59179 
    6700    296.92772   -6032.7677   -4838.1978   -4406.9282    1442.0608 
    6750    288.17905   -6048.7079   -4889.3348    -4713.839    586.81521 
    6800     293.7206   -6048.3346   -4866.6673   -4763.2885    345.67326 
    6850    298.02885   -5985.2755   -4786.2756   -4284.8876    1676.5194 
    6900    313.14338   -5998.5365   -4738.7294   -4207.8667    1775.0758 
    6950    296.00111   -5923.1233   -4732.2812   -4367.3333    1220.2971 
    7000    307.57498   -5961.2097   -4723.8048   -4691.0152    109.64042 
    7050    306.39094   -5928.3866   -4695.7452   -3964.1596    2446.2444 
    7100    297.35231   -5866.4701    -4670.192    -4024.327    2159.6156 
    7150    306.41464   -5881.7615   -4649.0248   -4127.8971     1742.524 
    7200    303.92186   -5858.1866   -4635.4786   -3898.2325    2465.1715 
    7250    302.41755   -5860.9601   -4644.3041   -3989.9762    2187.9133 
    7300    305.37296   -5868.1428   -4639.5968   -4118.4279     1742.662 
    7350    310.84469   -5882.1508   -4631.5916   -4109.4496    1745.9158 
    7400    312.08067   -5909.3782   -4653.8465   -4074.8307    1936.0879 
    7450    299.93602    -5909.621   -4702.9484    -4186.808    1725.8478 
    7500    300.59502   -5969.0394   -4759.7156   -4722.9002    123.10177 
    7550    299.49015   -6012.4545   -4807.5757    -4477.902    1102.3485 
    7600    308.94408   -6099.8748   -4856.9619   -4437.6593    1402.0457 
    7650    297.01966    -6078.689   -4883.7492   -4697.6216    622.36546 
    7700    297.05004   -6033.2221   -4838.1601   -4458.1582    1270.6339 
    7750     304.1031    -5969.316   -4745.8788   -4403.1881    1145.8741 
    7800    314.31895   -5954.0711   -4689.5345   -4104.1522    1957.3762 
    7850    315.35453   -5992.8484   -4724.1456   -4443.6437    937.93017 
    7900    293.01898   -5980.2737   -4801.4291    -4587.753    714.48065 
    7950    303.70045   -6065.0019   -4843.1847   -4791.0191    174.42912 
    8000    306.12012   -6095.7276   -4864.1758   -4840.4977    79.173684 
    8050    296.83366   -6019.6657   -4825.4743   -4691.3166     448.5907 
    8100    306.97456   -5993.3491   -4758.3598   -4234.6629     1751.115 
    8150    302.45315      -5945.2   -4728.4007   -4150.1762    1933.4422 
    8200    309.84247   -5974.9931   -4728.4659   -4443.1459    954.04053 
    8250    313.81382   -6026.4423   -4763.9379   -4736.0726    93.174647 
    8300    297.25932   -5970.1973   -4774.2934   -4493.9788    937.30376 
    8350    312.95424   -5989.6414   -4730.5952   -4380.3436    1171.1562 
    8400    309.41575   -5929.0672   -4684.2567    -4048.768    2124.9196 
    8450     314.6704   -5915.7244   -4649.7739   -4429.8896    735.23957 
    8500     301.9898   -5852.3515   -4637.4163   -3868.2083    2572.0443 
    8550    304.20528   -5865.8676   -4642.0193   -3737.1682     3025.602 
    8600    301.28005   -5895.9338    -4683.854   -4216.5893    1562.4196 
    8650    288.89079   -5857.1602   -4694.9237    -4048.727    2160.7245 
    8700    300.27424   -5866.1793   -4658.1461   -4255.5471    1346.1929 
    8750     316.2203   -5875.6995   -4603.5136   -4122.7443    1607.5756 
    8800    306.89905   -5840.3897   -4605.7041   -3618.1453    3302.1562 
    8850    303.02954   -5843.0556   -4623.9374   -3865.8093    2534.9961 
    8900    307.18668   -5869.9298   -4634.0871   -4075.3513    1868.2766 
    8950    293.77186   -5842.7044   -4660.8308   -3976.0367    2289.7849 
    9000    304.98368   -5921.3257   -4694.3459   -4590.7319    346.45976 
    9050    309.70896    -5967.568   -4721.5779   -4614.2022    359.03802 
    9100    315.54776   -6027.9765   -4758.4963   -4436.1681    1077.7872 
    9150    304.19614   -6032.0987   -4808.2872   -4543.8064    884.35961 
    9200    299.01748   -6061.1756   -4858.1983   -4998.9468    -470.6286 
    9250    294.90527   -6060.3172   -4873.8838    -4739.788    448.38358 
    9300    306.61249    -6063.343   -4829.8103   -4671.5292    529.25364 
    9350     318.7053   -6086.6606   -4804.4773   -4538.3014    890.02764 
    9400    295.31389   -6020.6086   -4832.5313   -4477.0115    1188.7718 
    9450    293.37956   -6041.5941   -4861.2988   -4685.3297    588.39792 
    9500    311.12002    -6090.426    -4838.759   -4994.0931   -519.39943 
    9550     308.3926   -6056.5043     -4815.81   -4531.9344      949.211 
    9600    300.91439   -6012.8228   -4802.2142   -4337.3999    1554.2258 
    9650     303.3942   -6024.5647   -4803.9795   -4433.8239    1237.7101 
    9700    320.12937   -6076.9258   -4789.0134   -5102.5487   -1048.3857 
    9750    301.94841    -6034.505   -4819.7364   -4499.4974    1070.8013 
    9800    298.17186   -6051.8009   -4852.2257   -4925.1693   -243.90551 
    9850    306.04944   -6102.6868   -4871.4193   -5115.8229    -817.2262 
    9900    298.12089   -6066.4309   -4867.0607   -4809.3402    193.00354 
    9950    311.66029   -6045.1252   -4791.2847   -4481.4425     1036.037 
  STMD DIG: istep=10000  TSC1=10000 Tlow=1.078606
   10000    320.28094   -6005.2136   -4716.6914   -4418.2558    997.89587 
   10050    308.55445   -5962.6954     -4721.35   -4209.0882    1712.8786 
   10100    302.89339   -5966.4878   -4747.9174   -4397.3536    1172.2001 
   10150    306.38199   -5982.8474    -4750.242   -4302.9197    1495.7369 
   10200    297.28205   -5959.9462   -4763.9508   -4236.0807    1765.0693 
   10250    311.46339   -6020.8339   -4767.7856   -4558.4129     700.0911 
   10300    315.24776   -6047.8555   -4779.5823   -4632.0282    493.38487 
   10350    298.45036   -6034.4646   -4833.7689   -4838.0004   -14.148919 
   10400     281.7406   -5960.8126   -4827.3421   -4360.6479    1560.5116 
   10450    296.71297   -5917.4183   -4723.7124    -4654.706    230.74077 
   10500    321.17897   -5905.4364   -4613.3013    -4184.254    1434.6295 
   10550     322.2272   -5890.9106   -4594.5584   -3920.9025    2252.5412 
   10600    305.53316   -5872.5679   -4643.3774   -4008.9779    2121.2776 
   10650    302.30182   -5954.3904   -4738.1999   -3640.2217    3671.3722 
   10700    293.76893   -5994.6798   -4812.8181   -4415.9435    1327.0519 
   10750    313.10109   -6106.5293   -4846.8923   -5445.1192   -2000.3249 
   10800    313.93844    -6172.004   -4908.9983   -5234.4694   -1088.2962 
   10850    296.55752   -6190.4841   -4997.4035   -5535.2571   -1798.4516 
   10900    293.70592   -6243.5285   -5061.9202   -5554.3615   -1646.6039 
   10950    296.39627   -6277.4452   -5085.0134   -5419.8061   -1119.4654 
   11000     298.1104   -6252.3596   -5053.0317   -5961.3514      -3037.2 
   11050    307.71883   -6186.7729   -4948.7893   -5426.3929   -1596.9903 
   11100    320.74978   -6146.7755    -4856.367   -5028.9211   -576.97891 
   11150    315.17576   -6132.2895   -4864.3059   -5210.4363   -1157.3761 
   11200    309.28764   -6189.0321   -4944.7371   -5470.1136   -1756.7314 
   11250    297.73831   -6225.8781   -5028.0471   -5584.5193   -1860.7076 
   11300    300.78484   -6293.5954   -5083.5079    -5732.803   -2171.0847 
   11350    303.92016   -6321.5402    -5098.839    -5738.992   -2140.5156 
   11400    303.95812   -6305.1954   -5082.3415   -5747.4489   -2223.9574 
   11450    294.54775   -6223.1819   -5038.1868   -5213.1935   -585.17981 
   11500    308.07845   -6222.4589   -4983.0285   -5591.9227    -2035.994 
   11550    311.17548   -6200.0424   -4948.1523   -5483.5978   -1790.3992 
   11600    310.86847   -6200.7709    -4950.116   -5411.0501   -1541.2514 
   11650    302.52773   -6206.0255   -4988.9262   -5470.0977   -1608.9203 
   11700     307.2233   -6256.8072   -5020.8171   -5733.0164    -2381.421 
   11750    303.63279   -6258.8362   -5037.2911   -5505.7493   -1566.4102 
   11800     302.9927   -6258.8534   -5039.8835    -5761.897   -2414.2375 
   11850    297.33185   -6204.2541   -5008.0583   -5280.8135   -912.02703 
   11900     311.4533   -6213.0977   -4960.0899   -5140.4626   -603.12241 
   11950    300.43811   -6149.4225     -4940.73   -5532.3468   -1978.2226 
   12000    304.44206   -6142.4837   -4917.6828   -4957.5456   -133.29146 
   12050    310.15934   -6135.7954   -4887.9934   -5263.6302   -1256.0383 
   12100    312.97726     -6125.52   -4866.3812   -5090.2181   -748.45619 
   12150    309.09439   -6165.3297   -4921.8121   -5118.5918   -657.98332 
   12200    289.38781   -6163.2655   -4999.0294   -5388.4081   -1301.9875 
   12250    298.40169   -6198.0913   -4997.5915   -5179.3494   -607.75424 
   12300    307.91345   -6225.7122   -4986.9456   -5433.7941   -1494.1529 
   12350    299.66967   -6193.7343   -4988.1333   -5618.7003   -2108.4626 
   12400     305.6714   -6189.0031   -4959.2565    -5075.025   -387.10173 
   12450    304.49616    -6157.263   -4932.2445   -5033.0977   -337.22834 
   12500    312.57859   -6180.2142   -4922.6793    -4995.055   -242.00703 
   12550    305.55126   -6148.7398   -4919.4765   -5234.3572   -1052.8844 
   12600    318.47685   -6185.6818   -4904.4176   -5158.6813   -850.19604 
   12650    303.28046    -6125.271   -4905.1434   -4757.1927    494.71112 
   12700    297.46062   -6096.9524   -4900.2386   -5121.2075   -738.86613 
   12750    301.56659   -6077.2541   -4864.0216   -4724.9844    464.90657 
   12800    307.80579   -6079.8163   -4841.4829   -4603.9588    794.22259 
   12850    317.42943    -6118.806   -4841.7556   -5108.0501   -890.42369 
   12900    300.79434   -6078.7609   -4868.6352   -4867.2354    4.6805703 
   12950    300.79876   -6115.3939   -4905.2504   -5192.0326   -958.92986 
   13000    315.22751   -6185.7877   -4917.5959   -5435.4316   -1731.5163 
   13050    295.60833     -6118.46   -4929.1981   -5392.5137   -1549.2144 
   13100    318.55258   -6194.0053   -4912.4364   -5309.7676   -1328.5788 
   13150    309.02956   -6173.7243   -4930.4675   -5538.9981   -2034.7782 
   13200    298.31439   -6150.7687   -4950.6201    -5426.898   -1592.5573 
   13250    306.52552   -6158.3496   -4925.1668   -5323.1436   -1330.7378 
   13300    316.38749   -6209.1262   -4936.2677   -5428.9946   -1647.5589 
   13350    311.66582     -6276.86   -5022.9973   -5479.6261   -1526.8555 
   13400    293.62991   -6272.6615   -5091.3591   -6067.1488   -3262.8034 
   13450    298.99852   -6268.4441   -5065.5432   -5672.2419   -2028.6528 
   13500    310.88091   -6255.6003   -5004.8953   -5400.2886   -1322.0988 
   13550    308.39344   -6217.5607    -4976.863   -5308.6707    -1109.484 
   13600    314.41725   -6240.0004   -4975.0684    -5586.351     -2043.98 
   13650    292.20398   -6187.3095   -5011.7437   -5370.7165   -1200.3178 
   13700    300.81976   -6216.9568   -5006.7288   -5701.2832   -2322.4208 
   13750    302.02338    -6199.258   -4984.1877   -5453.7357   -1570.0541 
   13800    304.06943   -6160.9685   -4937.6668   -5387.3683   -1503.6924 
   13850    297.46592    -6055.592   -4858.8569   -4657.6557    672.76791 
   13900    312.85401   -6028.8446   -4770.2016   -4598.3471    574.63984 
   13950    306.17605    -5906.769   -4674.9922   -3890.9284    2621.7185 
   14000    303.58263   -5845.6396   -4624.2964    -3841.146    2618.6643 
   14050    299.18348   -5803.9637   -4600.3186   -3955.8373    2154.9887 
   14100    315.96497   -5866.1938   -4595.0352   -4107.0695    1631.6382 
   14150    304.80316   -5816.0531   -4589.7995   -4105.6077    1619.0195 
   14200    312.81703   -5858.7712    -4600.277   -4008.2473    1979.6031 
   14250    315.87503    -5900.192   -4629.3952   -3944.3396     2290.659 
   14300    297.98172   -5907.0667   -4708.2564   -4264.2344    1484.7015 
   14350    306.42323   -6012.1053    -4779.334   -4484.6316    985.41314 
   14400    298.64165   -5983.7946   -4782.3294   -4465.1433    1060.5932 
   14450    307.94237   -5965.1109   -4726.2279   -3958.8633    2565.8806 
   14500    318.91772   -5943.5307   -4660.4928    -4297.096    1215.1104 
   14550    317.96789   -5914.8825   -4635.6659   -4505.3544    435.73016 
   14600    308.87732   -5922.1173   -4679.4729   -4256.8362    1413.1944 
   14650    299.66929   -5954.5007   -4748.9012     -4358.81    1304.3702 
   14700    293.63215   -5966.2782   -4784.9667   -4581.1913    681.37541 
   14750    299.77136   -5971.2105   -4765.2003   -4290.0074    1588.9295 
   14800      312.259    -5978.754   -4722.5048   -4684.9025    125.73308 
   14850     307.7847   -5922.9768   -4684.7282   -4203.8668    1607.8834 
   14900    310.55093   -5904.4638   -4655.0864   -4028.0781    2096.5633 
   14950    317.70238   -5943.5178   -4665.3694    -4224.671    1473.5882 
   15000    302.18274    -5896.412   -4680.7006   -4189.2697    1643.2255 
   15050    309.39018   -5906.1839   -4661.4763   -4044.4682    2063.1249 
   15100    308.59655   -5912.9135   -4671.3987   -4037.0602    2121.0735 
   15150      301.813   -5944.7598   -4730.5359    -4431.193    1000.9299 
   15200    300.95706   -5971.0398   -4760.2595   -4242.1825    1732.3234 
   15250    308.83249    -6031.569    -4789.105   -4548.0541    806.01541 
   15300    301.52591   -6054.2243   -4841.1554    -4700.781    469.37806 
   15350    298.19539   -6083.9095   -4884.2397   -4869.6727    48.708391 
   15400     305.2333   -6115.2787   -4887.2946   -5136.8024   -834.29315 
   15450    310.03071   -6125.8076   -4878.5231   -4929.8478   -171.61735 
   15500      300.593   -6085.8519   -4876.5362   -4769.9104    356.53084 
   15550    312.53905   -6122.4836   -4865.1077   -5025.1819   -535.24905 
   15600    309.98036   -6114.1603   -4867.0783    -5146.796   -935.30793 
   15650    299.32751   -6065.1277   -4860.9032   -4463.2349    1329.7058 
   15700    306.41976   -6042.1921   -4809.4348    -4464.619    1152.9801 
   15750    301.36872    -5971.596   -4759.1595    -4196.387    1881.7742 
   15800    303.46346   -5967.3742   -4746.5104   -4199.8455    1827.9142 
   15850    306.77241   -6014.5071    -4780.331   -4487.7383    978.35867 
   15900    293.26648   -6045.9489   -4866.1085   -4874.8912   -29.367132 
   15950    307.66572    -6120.758   -4882.9881   -5338.8719   -1524.3646 
   16000    321.05732   -6174.2259   -4882.5802   -5325.9543   -1482.5349 
   16050    311.83513   -6198.2148   -4943.6709   -5367.8957   -1418.5045 
   16100    309.62143     -6248.84   -5003.2021   -6053.3137   -3511.3177 
   16150    298.54683   -6272.9732   -5071.8894   -5871.5157   -2673.7558 
   16200     298.6015   -6325.4831   -5124.1794   -5762.2236   -2133.4647 
   16250    297.31995   -6331.1622   -5135.0143   -5824.0826   -2304.0767 
   16300    307.03604   -6326.3014   -5091.0647   -5643.0415    -1845.676 
   16350    305.20549   -6266.8904   -5039.0182   -5812.4277   -2586.0931 
   16400    305.68478   -6250.9539   -5021.1535   -5708.2025   -2297.3246 
   16450    298.35521   -6229.0105   -5028.6976   -5463.6542   -1454.3889 
   16500    308.06447   -6242.0093   -5002.6351   -5492.6502   -1638.4912 
   16550    312.47062   -6251.3209   -4994.2204   -5903.2937   -3039.7199 
   16600    306.03147   -6277.2077   -5046.0125   -5535.0481    -1635.216 
   16650    298.26972   -6301.1662   -5101.1973   -6042.7533   -3148.3342 
   16700    298.48872   -6288.5154   -5087.6654   -6069.6055   -3283.3688 
   16750    308.59058   -6282.5188    -5041.028   -5937.4353   -2997.3677 
   16800    303.28313   -6220.3432   -5000.2048   -5572.9477   -1915.1128 
   16850    305.29173   -6191.9683   -4963.7491   -5440.9237   -1595.5556 
   16900    306.05667   -6195.6601   -4964.3635    -5209.027   -818.09545 
   16950    295.56246   -6164.7017   -4975.6244   -5538.5033     -1882.13 
   17000     317.4476   -6213.5675   -4936.4441   -5598.1723   -2212.6578 
   17050    310.68921   -6183.0631   -4933.1294   -4874.4474    196.21808 
   17100    295.81529   -6182.1535    -4992.059   -5151.4318   -532.90357 
   17150    304.32079   -6279.3579   -5055.0449   -5886.2283   -2779.2748 
   17200    301.42722   -6303.0083   -5090.3364   -6340.5115   -4180.2814 
   17250    311.55709   -6326.9275   -5073.5021   -5933.9702   -2877.1959 
   17300    304.17897   -6298.7425   -5075.0001   -5602.9414   -1765.3072 
   17350    308.02081   -6338.0759   -5098.8774   -5728.2816   -2104.5748 
   17400    303.07773   -6349.1253   -5129.8133   -6264.8693   -3795.3509 
   17450    294.97803    -6316.331   -5129.6049   -6016.6914   -2966.2016 
   17500    311.17385   -6324.1204   -5072.2369   -5854.6066   -2616.0541 
   17550    309.98354   -6314.8912   -5067.7964   -5793.4912   -2426.5466 
   17600    305.31827   -6323.5441   -5095.2182   -5911.3264   -2728.8673 
   17650    303.77614   -6353.9016   -5131.7798   -6058.9852    -3100.349 
   17700    293.16528   -6342.4244   -5162.9911   -6016.9239   -2855.3433 
   17750    303.98038   -6373.4692   -5150.5257   -6118.3353   -3236.1197 
   17800    301.69247   -6332.8099   -5119.0709   -5898.3658   -2605.7724 
   17850    295.41532   -6270.2714   -5081.7861   -5402.3597   -1071.9204 
   17900    312.85459   -6278.8052   -5020.1599   -5643.6479    -2084.792 
   17950    309.60361   -6231.8209   -4986.2546   -5277.1973   -972.84163 
   18000    291.89269   -6183.3779   -5009.0644   -5168.2649   -532.32784 
   18050    298.82152   -6217.6566   -5015.4677   -5435.0957   -1403.1338 
   18100    310.17064   -6246.1486   -4998.3011    -5469.629   -1576.0056 
   18150    307.76718   -6276.6494   -5038.4713    -5463.975   -1422.7811 
   18200    306.48766   -6372.3775    -5139.347   -6163.4168   -3424.2399 
   18250    294.62134     -6411.94   -5226.6489   -5648.4236    -1410.312 
   18300    290.91555   -6393.5101   -5223.1277   -5933.4231   -2375.0549 
   18350    316.34853   -6384.7196   -5112.0178   -5955.7801   -2821.3358 
   18400    310.47451   -6279.9714   -5030.9014   -5497.2591   -1559.3865 
   18450    309.86959   -6242.6587   -4996.0224   -5235.9073   -802.11673 
   18500    310.42376   -6265.8886   -5017.0228   -5616.8509   -2005.6794 
   18550    303.76231   -6307.1014   -5085.0352   -5703.9993   -2069.6654 
   18600     295.7673   -6326.3173   -5136.4159   -5927.2635   -2644.4021 
   18650      301.224   -6347.3484   -5135.4941   -5798.4552   -2216.7807 
   18700    307.39179   -6339.7159    -5103.048   -5709.4634   -2027.7057 
   18750    307.82209   -6341.8223   -5103.4233   -5882.4656   -2604.9279 
   18800    308.19188   -6375.0599   -5135.1731   -5816.8527   -2279.3707 
   18850     290.6946   -6346.1265    -5176.633   -5745.1148   -1900.8648 
   18900    304.05431   -6378.7271   -5155.4862   -6034.9777   -2940.8055 
   18950    311.16409   -6397.6369   -5145.7926   -5983.8179   -2802.1526 
   19000    309.00484   -6403.4097   -5160.2524   -5918.2295   -2534.4909 
   19050    297.58009   -6378.7436   -5181.5491   -5933.3352   -2513.7899 
   19100    307.04313    -6421.823   -5186.5577   -5878.5282   -2313.7809 
   19150    306.23425   -6420.1904   -5188.1794   -5790.1276   -2012.7681 
   19200    300.15373   -6380.6798   -5173.1313   -5930.4828   -2532.3992 
   19250    300.42259   -6335.9091    -5127.279   -5612.5711   -1622.6985 
   19300    311.44964   -6333.3095   -5080.3164   -5515.3825   -1454.7552 
   19350    305.45626   -6314.4493   -5085.5682   -5587.0599    -1676.866 
   19400    301.68637   -6314.3065   -5100.5921   -5711.9353   -2044.1829 
   19450    297.71638    -6306.807   -5109.0642   -5632.4639   -1750.1211 
   19500    307.64932   -6301.6272   -5063.9233   -5162.1446   -328.42816 
   19550    307.04239   -6266.1884   -5030.9262    -5459.064   -1431.5887 
   19600    299.46215   -6231.1005   -5026.3344   -4972.8944    178.69043 
   19650    301.65514   -6220.9095   -5007.3207   -5458.9676   -1510.1975 
   19700    305.27945   -6186.0997     -4957.93   -5009.5257   -172.52369 
   19750    308.71434   -6160.9318   -4918.9432    -5117.962   -665.47061 
   19800    312.43596   -6171.1622   -4914.2011   -4933.5683   -64.759129 
   19850    297.04409   -6163.3157   -4968.2777   -5174.6384   -690.02017 
   19900    296.37594   -6179.6253   -4987.2753   -5151.5028   -549.13705 
   19950    308.84058   -6234.8558   -4992.3593        -5566   -1918.1152 
  STMD DIG: istep=20000  TSC1=10000 Tlow=0.946504
   20000    308.65046   -6243.6021   -5001.8705    -5505.396   -1683.6668 
   20050    304.90275   -6222.9633   -4996.3091   -5565.2837   -1902.5126 
   20100     307.0169   -6187.5117    -4952.352    -4898.241    180.93425 
   20150    307.50467   -6129.1823   -4892.0603   -5135.5007   -814.00545 
   20200    311.29162   -6105.5151   -4853.1577    -5065.452   -709.86018 
   20250    298.97595   -6019.8485   -4817.0384    -4656.873    535.55421 
   20300    300.63109   -5968.2311   -4758.7622    -4524.689    782.68376 
   20350    308.63612    -5958.531   -4716.8571   -4039.8388    2263.7842 
   20400    296.63698   -5900.8488   -4707.4485   -3792.0549    3060.8534 
   20450    308.56443   -5979.6354   -4738.2498   -4324.1552    1384.6316 
   20500     307.0402   -6032.9742   -4797.7208   -4611.3723    623.10399 
   20550     295.7162   -6050.1319   -4860.4361   -4814.4341    153.81932 
   20600    303.16079   -6124.1569   -4904.5107   -4901.3926    10.426359 
   20650    315.56624   -6206.3315    -4936.777   -5615.1677   -2268.3733 
   20700     297.7108   -6172.2575   -4974.5371   -4928.4623     154.0631 
   20750    303.12037   -6242.1464   -5022.6629    -5521.716   -1668.7122 
   20800    301.76953   -6264.6999   -5050.6509   -5694.7918   -2153.8504 
   20850    309.21126   -6286.9768   -5042.9889   -5845.5694   -2683.6338 
   20900    309.67918   -6271.2692   -5025.3989    -5240.247   -718.39965 
   20950    308.26862   -6280.2186   -5040.0231   -5549.4991   -1703.5638 
   21000    303.09057   -6263.9547   -5044.5911   -5428.1801   -1282.6282 
   21050    301.56494   -6213.8885   -5000.6626   -5319.4885   -1066.0762 
   21100    297.63971   -6149.2431   -4951.8088   -4790.8707    538.13802 
   21150    293.27981   -6074.0372   -4894.1432   -4775.6793    396.11466 
   21200     309.1473   -6049.6051   -4805.8746    -4539.569    890.46099 
   21250    310.02858   -5987.0251   -4739.7491   -4181.8849    1865.3622 
   21300    304.86689   -5949.4523   -4722.9423   -4008.3321    2389.4826 
   21350    287.71832     -5850.79   -4693.2705   -4032.3128    2210.0816 
   21400    320.43635   -5923.4042   -4634.2567   -4074.6973    1871.0304 
   21450    310.16724   -5888.3448    -4640.511   -3814.9906    2760.3394 
   21500    301.59073   -5908.5667    -4695.237   -4301.0517    1318.0599 
   21550    307.49586   -5949.9156    -4712.829   -4538.9779    581.31591 
   21600    309.98578   -5940.9833   -4693.8795   -4164.4855    1770.1647 
   21650    307.69212   -5939.4325   -4701.5563   -4215.4949    1625.2713 
   21700    299.29258   -5928.6635   -4724.5795   -4083.2619    2144.4102 
   21750    315.24093   -6006.2607   -4738.0149   -4721.2772    55.967051 
   21800    306.81433   -6018.9997   -4784.6549   -4611.5329    578.87813 
   21850    301.52684    -6055.483   -4842.4104   -4663.1675    599.34438 
   21900     304.5823   -6110.7461    -4885.381   -5059.0894   -580.83852 
   21950    292.63423   -6094.4472   -4917.1505   -5011.8811   -316.75599 
   22000    303.12143        -6146   -4926.5122   -4884.3257     141.0614 
   22050    302.00434   -6158.8832   -4943.8896   -4752.6651    639.40805 
   22100    290.49012   -6138.4228    -4969.752   -4989.5346   -66.148258 
   22150    297.21754   -6141.5539    -4945.818   -4850.7305    317.94953 
   22200    295.63642   -6076.8097   -4887.4349   -4937.3485    -166.8989 
   22250    300.84182    -6015.385   -4805.0683   -4655.8988    498.78668 
   22300    306.56999   -5980.7567    -4747.395   -4616.6016    437.34153 
   22350    312.40907   -5986.6069    -4729.754   -4377.8978    1176.5215 
   22400    304.75343   -5982.7515    -4756.698   -4521.3021    787.10659 
   22450    304.56601    -6029.008   -4803.7085   -4568.3316    787.04292 
   22500    299.32013   -6038.5747   -4834.3799   -5004.3391    -568.3022 
   22550    305.61563   -6078.8314   -4849.3091   -4843.1582    20.567263 
   22600    290.29688   -5995.4303   -4827.5369   -4219.2893     2033.832 
   22650    315.96739   -6044.4374    -4773.269    -4580.293    645.26496 
   22700    308.38854   -5940.2675   -4699.5896   -3686.6608    3386.9871 
   22750    296.13619   -5851.2461   -4659.8606   -4123.7536    1792.6114 
   22800    315.47165   -5932.7949   -4663.6209   -4093.2406     1907.213 
   22850      296.556   -5914.5621   -4721.4877   -4252.1651    1569.3005 
   22900    313.25728   -6033.4722   -4773.2069   -4694.1587    264.31778 
   22950    309.96651   -6054.9914   -4807.9651   -4170.8484    2130.3635 
   23000    296.79137   -6044.4552   -4850.4339    -4950.984   -336.21506 
   23050    308.72324   -6080.2799   -4838.2554   -5132.9011    -985.2234 
   23100    309.05483   -6044.1305   -4800.7721   -4712.2768    295.90661 
   23150    318.19247    -6093.106   -4812.9858   -5151.4207   -1131.6438 
   23200    296.43114   -6083.9425   -4891.3704    -5219.133   -1095.9586 
   23250     294.0586   -6133.1012    -4950.074    -5025.444   -252.01879 
   23300    302.02251   -6170.5628   -4955.4961   -5332.3301   -1260.0413 
   23350    312.50787   -6168.3929   -4911.1425   -5499.3067   -1966.6777 
   23400    306.42248   -6099.0989   -4866.3306   -4848.0715    61.053931 
   23450    293.42613   -6034.3005   -4853.8178   -4224.2015    2105.2836 
   23500    322.38872   -6127.1118   -4830.1098   -5131.7986   -1008.7739 
   23550    308.91977   -6103.6359   -4860.8208   -4965.9223   -351.43377 
   23600    309.31673   -6136.1306   -4891.7185     -5263.36    -1242.679 
   23650    302.84954   -6138.4246   -4920.0306   -4953.8268   -113.00621 
   23700    309.92812   -6226.4521   -4979.5803   -4837.9875    473.45186 
   23750    310.72142   -6312.7732   -5062.7098    -5612.513   -1838.4079 
   23800    303.91285   -6356.5616   -5133.8899   -5837.5722   -2352.9424 
   23850    301.29875   -6366.1305   -5153.9755   -5952.2266   -2669.1574 
   23900    298.07339   -6340.7746   -5141.5956   -6162.7928   -3414.6351 
   23950     304.5996   -6292.9062   -5067.4716   -5741.2458   -2252.9371 
   24000    307.83729   -6220.8932    -4982.433   -5301.6788   -1067.4803 
   24050    313.41561   -6174.9127   -4914.0103   -5119.2745   -686.35334 
   24100    310.13414   -6138.5631   -4890.8624   -5251.2426   -1205.0236 
   24150    303.90332   -6115.4533   -4892.8198   -4887.6922    17.145604 
   24200    306.03045   -6147.6671    -4916.476   -5277.9016   -1208.5191 
   24250     306.9235   -6179.2484   -4944.4645   -5182.2054   -794.94756 
   24300    312.83053   -6241.4671   -4982.9187   -5302.7309   -1069.3742 
   24350    294.80968   -6251.5347   -5065.4859    -5607.173     -1811.27 
   24400    293.93969   -6292.2157   -5109.6669   -5751.9748   -2147.7211 
   24450    312.96888   -6368.0541    -5108.949   -6024.2442   -3060.5244 
   24500     305.8157   -6344.2983   -5113.9712   -5891.4103   -2599.5674 
   24550    297.72632   -6319.7496   -5121.9669   -5694.8498    -1915.581 
   24600     304.6608    -6310.407   -5084.7261   -5883.1875   -2669.8607 
   24650    320.28075   -6327.3212   -5038.7997   -5869.5909   -2777.9636 
   24700    305.20388   -6271.8018   -5043.9361   -5566.7443   -1748.1436 
   24750    300.28657   -6273.9251   -5065.8422   -5701.5456   -2125.6372 
   24800    298.45584   -6283.4187    -5082.701   -5675.1731   -1981.0824 
   24850    296.69321   -6291.9073   -5098.2809   -5858.6625   -2542.5312 
   24900    304.81503    -6298.901   -5072.5997   -5765.9414   -2318.3661 
   24950    311.77578   -6289.6577   -5035.3526   -5590.1944    -1855.256 
   25000    314.71579    -6267.869   -5001.7359   -5424.7274   -1414.3804 
   25050     303.3098   -6197.4735   -4977.2279   -5184.9826   -694.68128 
   25100     302.5426   -6177.4653   -4960.3062    -5150.642    -636.4364 
   25150    318.61353   -6240.8479   -4959.0338   -5390.9246   -1444.1379 
   25200    306.20543   -6218.3895   -4986.4944   -5325.4769   -1133.4748 
   25250    306.15063   -6266.8204   -5035.1458   -5309.6726    -917.9507 
   25300    295.44929   -6282.8135   -5094.1915   -5816.4057   -2414.9085 
   25350    306.70415   -6315.9899   -5082.0885   -6105.1215   -3420.7734 
   25400    313.79507   -6303.3322   -5040.9033   -5735.8213   -2323.6368 
   25450    302.80241   -6239.6035   -5021.3991    -5217.403   -655.38923 
   25500    304.16367   -6213.7961   -4990.1152   -5076.8498   -290.01927 
   25550    300.30665   -6208.9364   -5000.7727   -5346.1212   -1154.7613 
   25600    296.11214   -6224.9622   -5033.6734   -5647.5674   -2052.7121 
   25650    295.64454   -6187.5811   -4998.1736   -5096.8509   -329.95272 
   25700    307.95228   -6123.3639   -4884.4411    -4997.214   -377.08524 
   25750    318.77372   -6027.6993   -4745.2407   -4393.5822    1175.8605 
   25800    308.18513   -5886.9462   -4647.0866    -3785.984    2879.3175 
   25850    314.28152    -5883.156     -4618.77   -4114.5941    1685.8414 
   25900    307.15298   -5855.3159   -4619.6088   -3852.8927     2563.712 
   25950    309.40441   -5870.4307   -4625.6658   -4126.6915    1668.4484 
   26000    310.59387   -5882.1048   -4632.5546   -4117.7406    1721.4129 
   26050    307.29854   -5881.2676   -4644.9748   -3987.6281    2198.0077 
   26100    297.28382    -5847.525   -4651.5225   -3834.0115    2733.5579 
   26150    315.59004   -5932.3274   -4662.6772   -4189.1068    1583.5041 
   26200    294.23451   -5858.6032   -4674.8684   -3804.2243    2911.2218 
   26250    303.85006    -5934.528   -4712.1088   -4150.2871    1878.5951 
   26300    304.78746   -5962.8556   -4736.6651   -4435.9816    1005.4126 
   26350    299.21658   -5937.5267   -4733.7485   -4156.5269    1930.0884 
   26400    300.74406   -5905.0128   -4695.0894    -4043.002    2180.4218 
   26450    304.21654   -5859.1848   -4635.2912   -3639.5898    3329.3834 
   26500    311.36792   -5840.8037   -4588.1394   -3526.9646    3548.3102 
   26550    303.99955   -5821.8713   -4598.8507   -3872.0302    2430.3109 
   26600     305.8702   -5842.8982   -4612.3519   -3973.4844    2136.2173 
   26650    296.51464   -5796.7579   -4603.8499   -3776.6835    2765.8432 
   26700    303.97313   -5848.4951   -4625.5808   -3951.1164    2255.2449 
   26750    301.33584   -5879.1413   -4666.8371   -4030.9331    2126.3084 
   26800    308.73689   -5912.8854   -4670.8061   -4409.7312    872.97085 
   26850    308.01926   -5919.5129   -4680.3207   -4471.1028    699.57359 
   26900    305.06997   -5971.9401   -4744.6132   -4477.5829    892.88425 
   26950    291.07388   -5983.1295   -4812.1102   -4865.1014   -177.18982 
   27000    305.28487   -6026.5779   -4798.3863   -4705.6537    310.07554 
   27050      308.992   -6002.0334   -4758.9277   -4330.8448    1431.4048 
   27100     299.8868   -5930.1926    -4723.718   -3964.9881     2537.008 
   27150    297.85917   -5896.4365   -4698.1193   -3920.4449     2600.354 
   27200    302.94703   -5893.8501   -4675.0639   -4038.3886    2128.8872 
   27250     303.2994   -5842.3403   -4622.1365   -3907.4878    2389.6116 
   27300    313.26458   -5808.4565   -4548.1618   -4244.3167     1015.984 
   27350    306.52658   -5749.5211    -4516.334   -3744.7959    2579.8355 
   27400    302.95848   -5778.4168   -4559.5846   -3946.1622    2051.1354 
   27450    288.40509   -5776.9686   -4616.6861   -4047.7683    1902.3225 
   27500    313.05861     -5904.62   -4645.1539   -4183.3631    1544.1161 
   27550    303.18864   -5879.3649   -4659.6067   -4349.1684    1038.0304 
   27600    304.83222   -5867.5375    -4641.167   -3897.8203    2485.5705 
   27650    312.65136   -5914.1006    -4656.273   -4379.3828    925.85338 
   27700    300.68044   -5930.7389   -4721.0714    -4496.305     751.5642 
   27750    298.26062   -5990.2904   -4790.3581   -4836.3375    -153.7438 
   27800    298.00105   -6005.8722   -4806.9842   -4328.4779    1600.0086 
   27850    311.24327   -6082.8142   -4830.6514   -4605.8545    751.66616 
   27900    295.93761   -6053.7445   -4863.1579   -4858.8689    14.341271 
   27950    310.00492   -6110.1673   -4862.9865   -4828.9263     113.8888 
   28000    308.37911   -6150.4618   -4909.8219   -5080.5937   -571.01934 
   28050    300.55676   -6183.9687   -4974.7988   -5013.6803   -130.01007 
   28100    298.72021   -6169.7606   -4967.9794   -5080.3112   -375.61046 
   28150    304.28329   -6152.6684   -4928.5063   -5251.0328   -1078.4501 
   28200    303.69751    -6113.183   -4891.3776   -4938.6961   -158.22166 
   28250    305.66154   -6068.1793   -4838.4723   -4645.5706    645.01643 
   28300    316.54049   -6046.6871   -4773.2131   -4302.2941    1574.6385 
   28350    315.69643    -6028.547   -4758.4687   -4388.3486    1237.5916 
   28400    295.63688   -5991.5872   -4802.2105   -4289.5395     1714.247 
   28450    299.76648   -6049.9996   -4844.0091   -4841.9199    6.9860273 
   28500    302.35566   -6056.4571     -4840.05   -4652.5904    626.81953 
   28550    304.02772   -6032.2471   -4809.1132   -4415.4374     1316.356 
   28600    300.15668   -5973.0737   -4765.5133   -4289.1204     1592.942 
   28650    310.54605   -5961.4297   -4712.0719   -4343.6867    1231.7907 
   28700    295.42304   -5873.6741   -4685.1577   -3933.8066    2512.3351 
   28750    308.21118   -5923.1919   -4683.2275   -4408.9394    917.15253 
   28800    309.99094   -5931.3275   -4684.2029   -4323.1131    1207.3966 
   28850    295.52731   -5916.8181   -4727.8821   -4264.1179    1550.7147 
   28900    304.95729   -5939.6995   -4712.8259   -4424.8008    963.08561 
   28950    307.56386   -5893.5919   -4656.2317   -3937.2177    2404.2081 
   29000    300.47042     -5846.59   -4637.7674   -3558.5201    3608.7405 
   29050    309.58127   -5879.5717   -4634.0953   -4106.8949    1762.8298 
   29100    302.21601   -5885.6443    -4669.799   -3857.2064     2717.112 
   29150    300.89972   -5967.3168   -4756.7671   -4301.0723    1523.7326 
   29200    296.98932   -6028.9444   -4834.1267   -4644.0993    635.40516 
   29250    290.84686   -6007.9863   -4837.8803   -4493.0765    1152.9403 
   29300     295.8576   -5941.6825   -4751.4178   -4734.7435    55.754938 
   29350    309.36152   -5905.1767   -4660.5843   -3901.1732     2539.286 
   29400    308.31399   -5840.5107   -4600.1327   -3903.4363    2329.5832 
   29450    310.96267   -5828.1226   -4577.0887    -3876.806     2341.575 
   29500    310.33554   -5846.2328   -4597.7219   -4009.5371    1966.7468 
   29550    316.05577   -5954.1487   -4682.6248   -4193.6459    1635.0264 
   29600    295.80403   -6015.5228   -4825.4736   -4684.7174    470.65454 
   29650    290.60894   -6092.7563   -4923.6075   -5143.0195   -733.66016 
   29700    302.92967   -6147.0107   -4928.2943   -5176.2481   -829.09723 
   29750    307.43813   -6102.3274   -4865.4731   -4799.5815    220.32523 
   29800    302.17532   -5996.7574   -4781.0758   -4175.9004    2023.5594 
   29850    317.05926   -5961.4372   -4685.8761   -4352.7384    1113.9313 
   29900    302.83963   -5879.9456   -4661.5915   -4160.3544    1676.0149 
   29950    313.52123   -5946.6059   -4685.2787   -4265.3541    1404.1258 
  STMD DIG: istep=30000  TSC1=10000 Tlow=1.102650
   30000    286.91784   -5907.5357   -4753.2366   -4215.0554    1799.5469 
   30050    303.84253   -5995.5632   -4773.1743   -4598.3938    584.42363 
   30100    302.75556   -5981.2462   -4763.2303   -4533.2528    768.98857 
   30150    306.50912   -5975.0883   -4741.9715    -4634.343    359.88343 
   30200    301.81484    -5947.481   -4733.2497   -4217.6255    1724.1219 
   30250    296.67254   -5925.0933     -4731.55   -4060.4607    2243.9594 
   30300    303.12243   -5923.6538    -4704.162    -3757.214    3166.3638 
   30350    308.00341   -5903.0549   -4663.9264   -3887.5947    2595.8643 
   30400    307.89539   -5851.8686   -4613.1747   -3993.3524    2072.5349 
   30450    311.00399   -5812.1456   -4560.9454   -3774.5737    2629.4358 
   30500    323.35054   -5885.0431   -4584.1716   -4180.3966    1350.1252 
   30550    302.56302   -5906.1393    -4688.898   -3823.6306    2893.2437 
   30600    295.24041   -5992.3373   -4804.5556   -4633.8135    570.92007 
   30650    298.06025   -6080.3887   -4881.2625   -4848.1766    110.63119 
   30700    305.31645   -6156.8311   -4928.5125   -5386.1017   -1530.0672 
   30750    296.93243   -6132.6899    -4938.101   -5133.9683   -654.93258 
   30800    304.05879   -6140.9453   -4917.6864   -5121.5573   -681.69467 
   30850    302.00893   -6112.0258   -4897.0137   -4917.3484    -67.99415 
   30900    309.03553   -6097.4334   -4854.1525     -4707.86    489.16657 
   30950    319.50776   -6130.1658   -4844.7541   -5152.9726   -1030.6077 
   31000    302.67719   -6076.1792   -4858.4786   -4608.7602    834.99771 
   31050    301.44088    -6041.953   -4829.2262   -4729.9965    331.79998 
   31100    315.09244   -6056.6393   -4788.9909   -4455.2277     1116.023 
   31150    307.52981   -6027.8306   -4790.6075   -4406.0889    1285.7367 
   31200    299.70446   -6043.6134   -4837.8724   -4530.8528    1026.5988 
   31250    318.15132   -6168.0599   -4888.1054   -5454.6261   -1894.3074 
   31300    294.02541   -6122.3357    -4939.442   -5159.6897   -736.45459 
   31350    306.74267    -6167.352   -4933.2956   -5443.0427   -1704.4702 
   31400    307.69693   -6187.1574   -4949.2619   -5588.1648   -2136.3359 
   31450     310.8216   -6183.2538   -4932.7875   -5616.0588    -2284.693 
   31500    314.95469   -6166.1655   -4899.0713   -5266.4028   -1228.2672 
   31550    316.13774   -6197.1107   -4925.2569   -5453.3564   -1765.8359 
   31600    296.58411   -6209.0213   -5015.8337   -5365.1181   -1167.9218 
   31650    304.91282   -6312.4341   -5085.7393   -6122.8561   -3467.8661 
   31700    303.89569   -6393.0498    -5170.447   -6347.7069   -3936.4706 
   31750    296.36375   -6438.0514   -5245.7504   -6604.6985   -4543.9917 
   31800    302.43746   -6454.0222   -5237.2861   -6768.2451   -5119.1545 
   31850    299.18319   -6374.6012   -5170.9573    -6067.426   -2997.5729 
   31900     318.3907   -6371.8295   -5090.9119   -6007.2702   -3064.0791 
   31950    300.62409   -6326.1328    -5116.692   -5983.4997   -2898.3938 
   32000    301.38912   -6363.5249   -5151.0063    -6218.831   -3570.5458 
   32050    302.91951   -6408.6557   -5189.9802   -6629.0417   -4811.8715 
   32100    307.50746    -6436.054   -5198.9207   -6621.1443   -4755.5694 
   32150    317.60792   -6500.4486   -5222.6801    -6111.349   -2971.4924 
   32200     291.6634   -6453.3427   -5279.9516   -6115.0034     -2792.21 
   32250    304.14583   -6499.7216   -5276.1125   -6948.4828   -5591.9992 
   32300    303.58265   -6452.9764    -5231.633   -6391.0684   -3876.8696 
   32350    314.37259   -6441.5936   -5176.8412   -6063.1523   -2963.6085 
   32400    307.83733   -6417.3026   -5178.8423   -6416.8511   -4139.6002 
   32450    303.35406   -6407.9747    -5187.551   -6252.7074   -3561.6239 
   32500    308.78773   -6441.4877   -5199.2038   -6267.3531   -3571.6315 
   32550    307.74989   -6472.6547   -5234.5461   -6784.4622   -5182.5422 
   32600    306.75877   -6503.5968   -5269.4756   -6573.6079   -4360.7011 
   32650    301.05679   -6503.7198   -5292.5383   -6446.2477   -3857.7237 
   32700    302.47738   -6506.7134   -5289.8167   -6948.7751   -5547.1532 
   32750    312.05612   -6481.5939   -5226.1609   -6678.8649   -4857.4888 
   32800    311.22388   -6417.1495   -5165.0647   -6176.8966   -3383.3196 
   32850    304.65383   -6374.2471   -5148.5943   -6175.0313   -3432.1554 
   32900     297.3607   -6358.6552   -5162.3434   -5957.5036   -2658.8221 
   32950    294.01981   -6366.6771    -5183.806   -5940.8703   -2531.4389 
   33000    305.22097   -6397.8379   -5169.9035    -6468.875   -4343.4449 
   33050    306.38445   -6389.0142   -5156.3989   -6069.5009   -3053.1908 
   33100    308.77198   -6406.7456    -5164.525   -6402.8762   -4140.7448 
   33150    315.50021   -6497.2842   -5227.9953   -6773.3894   -5167.4218 
   33200     291.1406   -6481.6508   -5310.3631   -6980.6415   -5585.0046 
   33250    299.06561   -6535.1342   -5331.9634   -6689.8244   -4540.3569 
   33300    301.32905   -6523.8714   -5311.5945   -6375.3709   -3557.0096 
   33350    308.73156   -6508.1381   -5266.0802   -6572.5919   -4368.6574 
   33400    313.09558   -6481.6582   -5222.0433   -6395.2285   -3922.8455 
   33450    300.09685   -6436.6882   -5229.3686   -6375.0828   -3830.9896 
   33500    302.62089    -6458.604     -5241.13   -6116.5387   -2927.1539 
   33550    315.06129   -6487.1946   -5219.6715    -6603.086   -4625.8011 
   33600    308.71027   -6475.1466   -5233.1743   -6339.2278   -3698.3739 
   33650    297.80372   -6458.2463   -5260.1521   -6243.2275   -3287.1648 
   33700    291.69999   -6435.5026   -5261.9643   -6161.3529   -3007.3363 
   33750    307.54835   -6473.8158    -5236.518   -6391.6103   -3862.3473 
   33800    306.67336    -6502.367   -5268.5894   -6825.3597   -5205.4612 
   33850    306.55306    -6560.323   -5327.0294   -6647.6272   -4415.7578 
   33900    297.32831    -6549.159   -5352.9775   -6824.0209   -4918.8112 
   33950    305.26287   -6541.7122   -5313.6092    -6804.179   -4984.1028 
   34000     302.8465   -6473.1786   -5254.7969   -6165.9711   -3046.7448 
   34050    293.70371   -6402.5466   -5220.9472   -6143.5973   -3085.1173 
   34100     321.4261   -6448.2429   -5155.1136   -5975.7663    -2744.063 
   34150    312.42276   -6411.3869   -5154.4789    -6179.833   -3428.5347 
   34200    302.10049    -6385.119   -5169.7386    -5986.765   -2731.9377 
   34250    303.95202    -6366.598   -5143.7686   -5726.9965   -1950.1723 
   34300    304.46598   -6319.4575   -5094.5604   -5714.1853   -2071.8749 
   34350    303.79242   -6309.7199   -5087.5326   -5932.3013   -2824.7009 
   34400    303.00698    -6327.717   -5108.6897   -5869.8496   -2545.1337 
   34450    317.49265   -6404.9902   -5127.6855   -6287.0756   -3876.7183 
   34500    294.60664   -6368.4379    -5183.206   -5843.5693   -2208.0944 
   34550    309.84156   -6441.1838   -5194.6602   -6109.1311   -3057.7683 
   34600    307.04373   -6442.4875   -5207.2198   -6321.4048   -3725.5633 
   34650    300.36749   -6445.1225    -5236.714   -6183.1477    -3164.644 
   34700    294.04884   -6428.3336   -5245.3458   -6383.2844     -3804.99 
   34750    314.53734   -6468.4219   -5203.0068    -6652.295   -4846.0672 
   34800    301.97424   -6442.9307   -5228.0582   -6244.7856    -3399.689 
   34850    310.53827   -6509.4088   -5260.0823   -6702.5206   -4823.1624 
   34900    306.47016   -6559.7985   -5326.8384   -6792.3841   -4900.4279 
   34950    295.10534   -6565.6049   -5378.3666   -6985.1641   -5372.7398 
   35000     297.9882   -6549.7983    -5350.962   -6637.2102   -4300.9011 
   35050    300.16327   -6502.8856   -5295.2988   -6689.7955   -4662.8576 
   35100    307.05343   -6474.9575   -5239.6508    -6388.052   -3839.9739 
   35150    314.75378   -6472.6133   -5206.3274   -6285.2467   -3607.6434 
   35200    303.97899   -6444.1303   -5221.1924   -6460.2817   -4143.2131 
   35250    311.72081   -6469.1207   -5215.0367   -6586.4784   -4585.7675 
   35300     302.5881   -6414.3364   -5196.9942   -6295.0715   -3671.7031 
   35350      301.822   -6384.2373   -5169.9772   -6060.8763   -2978.9498 
   35400    301.40581   -6348.4406   -5135.8549   -5811.1817   -2258.1285 
   35450    309.30658   -6330.4473    -5086.076   -5521.0335   -1454.3919 
   35500    309.60172   -6321.9695   -5076.4108   -5368.3251    -976.0903 
   35550    307.36873   -6340.8216   -5104.2465   -6122.3828      -3404.4 
   35600    301.86803   -6368.8826   -5154.4374   -5806.0183   -2178.7281 
   35650    303.40855   -6395.4869    -5174.844   -5757.9387   -1949.7269 
   35700    301.68395   -6375.8257    -5162.121   -5807.3068   -2157.3445 
   35750    304.78168   -6362.5785   -5136.4114    -5805.023   -2235.6745 
   35800    312.51115   -6375.1675   -5117.9039   -6060.8066   -3152.8373 
   35850    297.70468   -6334.4279   -5136.7322   -5658.9179   -1746.0621 
   35900    299.83955   -6334.4756   -5128.1911   -5631.9278   -1684.3729 
   35950    303.71887   -6332.2987   -5110.4073   -5429.7005   -1067.6385 
   36000    305.79986   -6321.3505   -5091.0871   -5470.8592   -1269.8654 
   36050    305.13405   -6297.5863   -5070.0015   -5390.2063   -1070.6869 
   36100    300.55691   -6250.1053   -5040.9348   -5608.4901   -1897.7668 
   36150    318.35709   -6266.3496   -4985.5672   -5306.6398   -1073.5887 
   36200    300.02634   -6200.8898   -4993.8539    -5252.429   -864.61221 
   36250    317.26335   -6318.4164   -5042.0343   -5645.9025   -2019.1884 
   36300    310.40856   -6356.9619   -5108.1573   -5887.4177   -2605.6573 
   36350     299.2397   -6358.3994   -5154.5282   -6019.1374   -2891.0427 
   36400    299.15209   -6343.6487     -5140.13   -5981.5421   -2813.4774 
   36450    291.79141   -6226.1015   -5052.1955    -5388.642   -1124.9953 
   36500    314.98371   -6206.8172   -4939.6063   -5365.7615   -1424.9593 
   36550    309.00883   -6147.1703   -4903.9968   -4979.1599   -251.32713 
   36600    309.09486    -6149.981   -4906.4615   -5003.0611   -323.00567 
   36650    302.73929   -6112.0944    -4894.144   -4741.4017    510.73304 
   36700      302.034   -6083.8328   -4868.7199   -4986.5169   -393.88473 
   36750    296.93034   -6032.5129   -4837.9324   -4609.1046    765.14454 
   36800    302.51796   -6014.9288   -4797.8688   -4021.8044    2594.9705 
   36850    304.94754   -6005.0387   -4778.2043   -4338.2681    1471.0396 
   36900    309.47653    -5990.206    -4745.151   -4340.6618    1352.5133 
   36950    299.44881   -5907.3771   -4702.6646   -3913.3787    2639.1799 
   37000       302.34   -5874.6193   -4658.2753    -3887.448    2577.4588 
   37050    304.24971    -5877.136   -4653.1091   -4035.4248    2065.3858 
   37100    293.06688   -5874.6302   -4695.5928   -3886.1651    2706.5293 
   37150    311.21255   -5982.6224   -4730.5832   -4412.1678    1064.7035 
   37200    308.21887   -5995.9894   -4755.9941   -4487.0607    899.24783 
   37250    300.46567   -5987.0732   -4778.2698   -4583.1941    652.28566 
   37300    301.79756   -6014.4932   -4800.3315   -4595.0284    686.48363 
   37350    305.13877   -6054.7982   -4827.1944   -4824.4176     9.285213 
   37400    307.37185   -6102.4729   -4865.8852   -4947.6677   -273.46082 
   37450    309.84192   -6140.2726   -4893.7475   -5059.0077   -552.58986 
   37500     297.4768   -6132.1583   -4935.3794    -4876.401    197.20923 
   37550    291.32974   -6157.5962   -4985.5476   -5124.6842   -465.23908 
   37600    300.51072    -6220.456   -5011.4714   -5412.1725   -1339.8472 
   37650    296.52656   -6206.9358   -5013.9798   -5392.9388   -1267.1467 
   37700    305.47743   -6208.9611   -4979.9948   -5471.6597   -1644.0078 
   37750    318.28077   -6202.1713    -4921.696   -5301.7893   -1270.9396 
   37800    298.92903   -6081.3551   -4878.7338   -4814.1077    216.09405 
   37850    315.45096   -6103.5958    -4834.505   -4699.7012    450.75113 
   37900    307.77253   -6069.7245   -4831.5249   -4588.2447    813.46963 
   37950    297.07962   -6035.3974   -4840.2164   -4240.4504    2005.4713 
   38000    295.08462   -5968.2902   -4781.1352   -4311.9773    1568.7499 
   38050    306.33718   -5924.8923   -4692.4672   -4252.4544    1471.2955 
   38100    305.24291   -5858.5828   -4630.5601   -4039.9054    1975.0054 
   38150    299.19778   -5812.5675   -4608.8649   -3989.5475    2070.8465 
   38200    311.08005   -5857.2941    -4605.788   -3840.1917    2559.9677 
   38250    309.02513   -5884.2572   -4641.0182   -3902.6097    2469.0585 
   38300     304.7783   -5930.7765   -4704.6229    -4289.434    1388.2907 
   38350    308.06876   -5966.1176   -4726.7262   -4139.0325    1965.1049 
   38400    297.12801   -5900.3711   -4704.9954   -4212.3803    1647.1852 
   38450    322.33391   -5994.1101   -4697.3285   -3912.6901    2623.6401 
   38500    296.86567   -5953.7736   -4759.4533    -4581.842    593.88892 
   38550    308.21144    -6051.642   -4811.6766   -4803.9222    25.928574 
   38600    303.97097   -6078.7322   -4855.8266   -4810.9068    150.20109 
   38650    302.72334   -6121.7093    -4903.823   -5048.6947   -484.41554 
   38700     307.2231   -6159.9298   -4923.9406   -5576.7328   -2182.7783 
   38750    298.47672   -6120.7218   -4919.9202   -5346.5519   -1426.5528 
   38800    323.05171   -6163.2127   -4863.5434   -5364.9037    -1676.427 
   38850    303.69936   -6080.2552   -4858.4424   -4761.0932    325.51197 
   38900    308.28368   -6107.3674   -4867.1113   -4712.7793    516.04887 
   38950     312.1907   -6151.1276   -4895.1532   -5194.9945   -1002.5964 
   39000    313.49126    -6228.293   -4967.0863   -5301.5579   -1118.3917 
   39050    292.90417   -6236.6204   -5058.2377   -5566.4011   -1699.1748 
   39100    300.62044   -6284.0206   -5074.5945   -5701.2065    -2095.238 
   39150    301.73027   -6244.3165   -5030.4254   -5328.7522   -997.53218 
   39200    320.00121   -6271.0659   -4983.6691   -5637.9178   -2187.6486 
   39250    308.80722   -6242.6989   -5000.3366   -5238.5914   -796.66597 
   39300    303.72966   -6246.5685   -5024.6338   -5788.6657   -2554.7369 
   39350    297.57431   -6245.4235   -5048.2523   -5581.8159   -1784.1068 
   39400    307.76223   -6281.9787   -5043.8204   -5917.8652   -2922.5931 
   39450    293.21237   -6199.9613   -5020.3386   -5287.3657   -892.87348 
   39500    302.40632   -6153.6934   -4937.0825   -5185.5447   -830.79713 
   39550    316.55255   -6143.0162   -4869.4937   -5065.4764   -655.31854 
   39600    308.91984   -6127.8406   -4885.0252   -5060.1082   -585.43488 
   39650    306.59354   -6159.4144   -4925.9579   -5497.7886   -1912.0626 
   39700     305.3931   -6215.6733   -4987.0464   -5193.1319   -689.09983 
   39750    299.23366     -6265.37   -5061.5231   -5835.6595   -2588.5237 
   39800    303.96091   -6343.0166   -5120.1515   -6054.3186   -3123.6274 
   39850    296.94938   -6320.5337   -5125.8767   -5643.0911   -1729.4391 
   39900    309.98232   -6319.8723   -5072.7824   -5571.6911   -1668.2291 
   39950    318.76278   -6341.3944   -5058.9799   -5673.5414   -2054.9443 
  STMD DIG: istep=40000  TSC1=10000 Tlow=0.914060
   40000      312.502    -6333.369   -5076.1422   -5749.2654     -2250.76 
   40050    305.02731   -6352.0121   -5124.8567   -5945.8929   -2745.3452 
   40100    297.15351   -6385.8831   -5190.4048   -6419.3144   -4109.1746 
   40150     299.0124   -6432.0651   -5229.1083   -6255.7817    -3432.946 
   40200    311.52213   -6496.4119   -5243.1273   -6828.7329   -5301.8793 
   40250    311.25288   -6547.4734   -5295.2719    -6774.509   -4946.2089 
   40300    297.46391   -6559.5827   -5362.8556   -6910.4908   -5174.9155 
   40350    296.51562   -6580.3306   -5387.4187   -6955.6161   -5243.6707 
   40400    293.19161   -6545.3659   -5365.8267    -6913.246   -5174.1936 
   40450     313.0776    -6532.021   -5272.4786   -6710.6295   -4808.8266 
   40500    303.56636   -6458.3017   -5237.0239   -6231.6635   -3325.8328 
   40550    288.49852    -6411.261   -5250.6026   -6121.6491   -2912.5673 
   40600    298.02938   -6411.7917   -5212.7897   -6413.1995   -4013.8783 
   40650    316.45875   -6387.2306   -5114.0854   -5920.7083   -2697.1506 
   40700    301.18374   -6288.4607   -5076.7684   -5276.5179   -667.91386 
   40750    303.91221   -6265.1312    -5042.462   -5329.9809    -961.3934 
   40800    311.88478   -6302.8181   -5048.0744   -5521.3768   -1582.6081 
   40850    297.54733   -6304.3086   -5107.2459   -5819.4887   -2381.5666 
   40900    303.24596   -6388.0093   -5168.0204   -6211.0459   -3487.6235 
   40950    298.60345   -6416.7147   -5215.4032   -6145.8042   -3111.0346 
   41000    297.51725   -6419.4585   -5222.5169   -6469.5024   -4169.6163 
   41050    301.69662   -6374.4087    -5160.653   -6033.8688   -2919.8212 
   41100    314.61843   -6359.1357   -5093.3943   -5745.1486   -2179.3079 
   41150    314.26999    -6346.947   -5082.6074   -5871.4088   -2637.5599 
   41200    298.42628   -6308.7767   -5108.1779   -5950.4941   -2816.5005 
   41250    290.22495   -6298.9545   -5131.3506   -5544.5683   -1381.6996 
   41300     315.2579   -6371.7893   -5103.4752   -6570.6707   -4905.9448 
   41350    310.87353    -6391.004   -5140.3287   -6266.7681   -3766.5392 
   41400    307.99442   -6439.5216   -5200.4292    -6553.723   -4525.0852 
   41450    303.89299   -6473.1661   -5250.5742   -6704.1522   -4860.4109 
   41500    296.68806   -6508.6482   -5315.0424    -6804.697   -4981.0425 
   41550    310.33091   -6585.5084   -5337.0161   -7056.1123   -5748.2392 
   41600    295.11777   -6559.1933    -5371.905   -6967.2727   -5334.5214 
   41650    312.85311    -6598.089   -5339.4496   -7224.9894   -6304.7861 
   41700    297.84197   -6530.2227   -5331.9747   -6898.3157   -5237.4632 
   41750    302.87346   -6495.0419   -5276.5517   -6678.5824   -4688.0495 
   41800    323.37961   -6481.4009   -5180.4124   -6502.0639   -4419.2811 
   41850    317.50345   -6419.4003   -5142.0522   -6287.4358   -3829.8841 
   41900     308.6945   -6396.8569   -5154.9481   -6178.5663   -3422.7301 
   41950    302.32241   -6398.7604   -5182.4871   -6333.4708   -3848.6096 
   42000    306.99527   -6441.4746    -5206.402   -6623.5478   -4738.5907 
   42050    308.43361    -6492.752   -5251.8928   -6408.3187   -3866.8069 
   42100    300.02722   -6522.5718   -5315.5323   -6902.5051   -5306.4508 
   42150    291.74969   -6524.5133   -5350.7752   -7121.5799   -5921.1401 
   42200    305.80541   -6547.2279   -5316.9422   -6834.7624   -5075.2214 
   42250    310.15864   -6520.7203   -5272.9211   -6734.6506   -4887.6679 
   42300    299.91372    -6449.028   -5242.4452   -6391.9697   -3843.7304 
   42350    312.11072   -6450.9692   -5195.3166   -6397.5667   -4020.0317 
   42400    312.77272    -6458.892   -5200.5761   -6325.7296   -3762.2394 
   42450    294.99933   -6428.9448    -5242.133   -6203.3624   -3214.1172 
   42500    302.02699   -6453.2277   -5238.1429   -6683.6716   -4833.4961 
   42550    313.83797   -6479.0779   -5216.4764   -7012.5462   -6005.6204 
   42600    312.37892   -6509.3194   -5252.5878   -6947.9661   -5668.9326 
   42650    302.33866   -6518.8623   -5302.5237   -6877.4543   -5266.1846 
   42700    297.77148   -6516.0405   -5318.0761   -7100.5458   -5960.1451 
   42750    308.34229   -6527.3028   -5286.8109   -7032.6913   -5837.7989 
   42800    298.86737   -6488.6973    -5286.324   -6574.2027    -4306.353 
   42850     296.9526   -6498.8841   -5304.2141   -6731.6561   -4773.0185 
   42900    316.22879   -6560.0297   -5287.8097   -7187.7164   -6352.8258 
   42950    311.64263   -6575.0456   -5321.2762   -7190.1134   -6248.9367 
   43000    301.78817   -6612.9529   -5398.8289    -7382.735   -6633.6993 
   43050    292.44676   -6610.0977   -5433.5552   -7303.3615   -6252.1772 
   43100     308.4214    -6640.487   -5399.6769   -7418.8695   -6751.6888 
   43150    298.94095   -6577.6922   -5375.0229   -7325.7982    -6522.918 
   43200    300.18865   -6535.1733   -5327.4844   -7149.8516   -6093.5524 
   43250    298.92839   -6484.4067   -5281.7879   -6609.4074   -4439.2364 
   43300    312.43105   -6490.6042   -5233.6629   -6376.7003    -3822.039 
   43350    309.01549   -6450.1799   -5206.9797    -6383.696   -3934.6531 
   43400    306.52012   -6384.7441    -5151.583   -5847.9501   -2328.4822 
   43450    305.52486    -6343.378    -5114.221   -5451.7654   -1128.6663 
   43500     312.3922   -6364.6233   -5107.8383   -5761.0397   -2184.1468 
   43550    306.71426   -6379.0985   -5145.1564   -6183.1664   -3470.8527 
   43600    290.53909   -6335.9557   -5167.0879   -5808.4096   -2144.4235 
   43650    305.52252   -6319.7755   -5090.6278   -5704.9763   -2054.2318 
   43700     299.3182   -6193.0387   -4988.8516   -5067.8663   -264.20573 
   43750    315.35087   -6147.9823   -4879.2942   -4909.0919   -99.636155 
   43800    314.97707    -6120.197   -4853.0128   -4770.0361    277.45379 
   43850    316.38685   -6175.7626   -4902.9067   -4952.6366   -166.28451 
   43900    296.96964   -6208.0402   -5013.3017   -5440.8289   -1429.5471 
   43950    292.72598   -6264.5232   -5086.8573   -5642.8488   -1859.1004 
   44000    291.21315   -6238.3716    -5066.792   -5554.5418   -1630.9167 
   44050    304.10388     -6205.83   -4982.3896   -5563.4223   -1942.8318 
   44100     310.2184   -6164.5727    -4916.533   -5454.5151   -1798.8811 
   44150    307.73737   -6134.2334   -4896.1752   -5049.1691   -511.57417 
   44200    302.17432   -6113.4156   -4897.7381   -4625.9634    908.74853 
   44250    305.68281   -6117.8124     -4888.02   -4970.0782   -274.38279 
   44300    301.21866   -6036.2279   -4824.3951   -4381.8734     1479.685 
   44350    319.49349   -6040.8836   -4755.5294   -4419.2085    1124.5751 
   44400    306.64073   -5943.0897   -4709.4434   -4313.5952    1323.6201 
   44450    312.60157   -5925.8469   -4668.2195   -4325.5543    1145.7892 
   44500    307.61929   -5859.6062   -4622.0231    -4171.062    1507.9041 
   44550    297.56253   -5773.3814   -4576.2576   -3629.8354    3164.6053 
   44600    314.29393   -5803.1727   -4538.7367    -3835.736    2350.6635 
   44650    310.58037   -5792.3876   -4542.8917    -3910.225    2115.4834 
   44700    314.80686   -5841.5796   -4575.0801   -4112.7046     1546.071 
   44750    304.60393   -5843.8161    -4618.364   -3989.2311    2103.6674 
   44800     314.2382   -5951.1824   -4686.9707   -4149.5574    1796.9794 
   44850    297.42648   -5965.4267   -4768.8502   -4412.2256    1192.4657 
   44900     288.0406   -5987.8127   -4828.9965   -4608.6186    736.89002 
   44950    306.90765    -6038.829   -4804.1089   -4492.3566    1042.4237 
   45000    295.67412   -5931.6873   -4742.1608   -4102.9524    2137.3572 
   45050    306.93978   -5917.0395     -4682.19   -4256.5568     1423.214 
   45100    311.55766   -5878.0463   -4624.6187   -4073.7667    1841.9149 
   45150    296.86635   -5786.3081   -4591.9851   -3691.8374    3009.8749 
   45200    305.77613   -5791.9906   -4561.8227   -3758.9375    2684.6525 
   45250    310.87204   -5802.0023    -4551.333   -3857.2505    2320.8429 
   45300      311.991     -5863.22    -4608.049   -3921.2393    2296.5244 
   45350     293.7459   -5885.3822   -4703.6131   -4023.6912    2273.4932 
   45400    303.13344   -5997.3748   -4777.8387   -4398.9444    1266.9303 
   45450    291.74172   -6007.9158   -4834.2097   -4647.3289    624.88392 
   45500    311.46302   -6095.3372   -4842.2904   -5051.9164   -700.93861 
   45550    301.91494   -6029.3109   -4814.6769   -4553.2711    874.07722 
   45600    299.69319   -5974.8884   -4769.1928   -4545.8936    746.65823 
   45650    310.77456   -5989.7256   -4739.4485   -4416.1263    1081.1105 
   45700    295.55453   -5868.3748   -4679.3294   -4004.5116    2256.4266 
   45750    311.47318   -5848.7081   -4595.6203   -4052.4838    1816.1162 
   45800    312.23917   -5808.1699   -4552.0005   -3818.9927    2450.9995 
   45850    304.16154    -5794.456   -4570.7838   -4056.2234    1720.5646 
   45900    305.63087   -5822.5742   -4592.9907   -4257.4636    1121.9208 
   45950    315.26086   -5860.4034   -4592.0775   -4328.0846    882.72787 
   46000    299.34565   -5838.1407   -4633.8432   -4093.5714    1806.5374 
   46050    305.48672   -5939.1782   -4710.1746   -4052.1099    2200.4083 
   46100    303.55612   -5997.2232   -4775.9866   -4703.1414    243.57654 
   46150     293.9308   -5992.3956   -4809.8826   -4520.9602    966.08621 
   46200    288.27075   -5926.6514   -4766.9094   -4668.4757    329.13807 
   46250    316.16444   -5924.7048   -4652.7437   -4248.8437    1350.5432 
   46300    315.31426   -5835.6426   -4567.1018   -4204.7234    1211.7053 
   46350    310.98389   -5812.2695   -4561.1502   -4061.2368    1671.5888 
   46400    304.84569   -5841.5092   -4615.0845   -4129.5099    1623.6433 
   46450    297.97713   -5890.4388    -4691.647   -4122.1105    1904.3916 
   46500    301.09403   -5960.5206   -4749.1892   -4416.4011    1112.7626 
   46550    304.04149   -5989.0067   -4765.8174   -4605.9161    534.67087 
   46600    310.63143    -6056.074   -4806.3727   -4644.3278    541.83864 
   46650    297.80114   -6081.5865   -4883.5028    -4998.366   -384.07481 
   46700    314.12268   -6169.0125   -4905.2656   -5094.8887   -634.05378 
   46750    298.69532   -6120.5996   -4918.9185   -4564.7268    1184.3308 
   46800    306.24276   -6130.6213    -4898.576   -5086.2382   -627.49658 
   46850    304.76921   -6087.7452   -4861.6281   -4778.3369     278.5056 
   46900    312.21152   -6068.7818   -4812.7236   -4707.5999    351.50812 
   46950    305.38047   -6019.0494   -4790.4733   -4325.4364    1554.9701 
   47000    304.14256   -5973.2204   -4749.6245   -4192.4771    1862.9654 
   47050    306.29139   -5947.1746   -4714.9337   -3997.6005    2398.5876 
   47100    305.57671   -5915.0582   -4685.6925   -4248.4824    1461.9241 
   47150    316.07846   -5950.6473    -4679.032   -4071.4641    2031.5594 
   47200    315.80323   -6045.9536   -4775.4457   -4671.0083    349.21314 
   47250     297.4354   -6113.2486   -4916.6363   -4833.1026    279.31632 
   47300    301.09596   -6175.4608   -4964.1216   -5587.6236   -2084.8388 
   47350     312.5421   -6225.1133   -4967.7252   -5120.6609   -511.38001 
   47400     301.4813   -6210.6697   -4997.7803   -5110.7976   -377.90254 
   47450    300.77473   -6238.6792   -5028.6324   -5419.4531   -1306.8093 
   47500    295.02312   -6254.4549   -5067.5474   -5510.8687   -1482.3584 
   47550    300.84607   -6289.4245   -5079.0907    -5608.159   -1769.0758 
   47600    296.42499   -6247.7971   -5055.2498   -5354.1042   -999.29658 
   47650    296.23316    -6183.408   -4991.6323   -5155.9533   -549.44927 
   47700    308.48291   -6165.4517   -4924.3941   -5183.6152    -866.7723 
   47750    320.67158   -6183.4909   -4893.3971   -5229.4325   -1123.6204 
   47800    307.37342   -6169.6414   -4933.0474   -5199.3319    -890.3905 
   47850    293.24743    -6175.284   -4995.5203    -5351.072   -1188.8784 
   47900    304.37563   -6240.1599   -5015.6263   -5627.0786   -2044.5478 
   47950    309.34142   -6251.6523   -5007.1408   -5643.4441   -2127.6434 
   48000    305.99564   -6211.8497   -4980.7986   -5255.9697   -920.10506 
   48050     309.2447   -6215.6014    -4971.479   -5124.7884   -512.62923 
   48100    306.81081   -6199.3303   -4964.9997   -5406.3576   -1475.7933 
   48150     316.3352   -6227.3354   -4954.6873   -5468.8138   -1719.1138 
   48200    299.53884   -6197.4672   -4992.3925   -5187.0732   -650.96479 
   48250    296.88046   -6209.3543   -5014.9746   -5295.4127    -937.7169 
   48300    304.38987   -6263.5852   -5038.9943   -5560.0966   -1742.4393 
   48350    296.05349   -6274.8155   -5083.7627   -5265.1998   -606.68166 
   48400    304.79511   -6325.9619   -5099.7407   -5622.5244   -1748.0615 
   48450    298.19939   -6309.5248   -5109.8389    -5695.385   -1957.9238 
   48500    302.72497   -6320.6153   -5102.7225   -5385.0517   -944.04016 
   48550    294.59713   -6280.7779   -5095.5842   -5750.6967   -2190.5366 
   48600    297.75819   -6251.3343   -5053.4233    -5718.245    -2223.002 
   48650    305.56033   -6217.2057   -4987.9059   -5355.0324   -1227.5816 
   48700    310.76742   -6201.8809   -4951.6326   -5357.8693    -1358.357 
   48750    303.71392    -6140.753   -4918.8816   -4865.8539    177.31142 
   48800    316.79293   -6170.1025   -4895.6129   -5085.4476   -634.76102 
   48850    304.50135   -6157.8764    -4932.837   -4961.3464   -95.328416 
   48900    304.38425   -6237.3199   -5012.7517   -5620.8048   -2033.1815 
   48950    300.02242   -6314.8746   -5107.8544   -5903.6497   -2660.9458 
   49000    302.93079   -6377.2729   -5158.5521   -6100.9634   -3151.1943 
   49050    297.34769   -6390.6959   -5194.4364   -6100.1474   -3028.4769 
   49100     306.3568   -6410.9412   -5178.4372   -6662.3255   -4961.7614 
   49150    311.51738   -6382.0294   -5128.7639   -5960.6792   -2781.7223 
   49200    309.75985   -6335.4409   -5089.2461   -5763.1993   -2253.5357 
   49250     310.5367   -6298.4899   -5049.1697   -5458.2799   -1367.9648 
   49300    316.00868   -6290.3629   -5019.0284   -5635.3417   -2060.8018 
   49350    301.29609   -6257.5047   -5045.3605   -5350.6195   -1020.7118 
   49400    313.80344   -6340.5647   -5078.1021   -5854.3361   -2595.5375 
   49450    299.93114   -6352.8281   -5146.1752   -5803.9064    -2199.293 
   49500     299.2645   -6417.4987   -5213.5277   -6319.9595   -3699.6387 
   49550    298.88488   -6482.3976   -5279.9539    -6265.061   -3293.9585 
   49600    304.55199   -6566.0715   -5340.8284    -7052.453   -5723.2562 
   49650    299.59648   -6596.6764   -5391.3698   -7213.9895   -6094.3967 
   49700    294.74808   -6594.9013   -5409.1003   -7090.9258   -5623.6153 
   49750    302.14585   -6579.7729   -5364.2099   -6988.6145   -5431.6135 
   49800    308.39436   -6551.3187   -5310.6173   -7081.1457   -5920.2158 
   49850    293.50604   -6456.2771    -5275.473   -6208.7506   -3120.6532 
   49900    303.88701   -6420.3717   -5197.8039   -6257.7912   -3544.3397 
   49950    306.39797   -6383.5225   -5150.8529   -5981.8865   -2778.7743 
  STMD DIG: istep=50000  TSC1=10000 Tlow=0.919904
   50000    305.21955   -6359.5119   -5131.5831    -5970.719   -2805.8662 
   50050     306.7169   -6344.4207   -5110.4679   -5877.8198   -2565.8379 
   50100    320.71731   -6364.9122   -5074.6344   -6080.5164   -3363.4246 
   50150    303.95553   -6346.8784   -5124.0349   -5885.7761   -2547.0773 
   50200     302.5604   -6386.5992   -5169.3685   -6110.5789   -3147.1786 
   50250    303.23635    -6390.502   -5170.5519   -6151.5978   -3280.3789 
   50300    309.42143   -6434.0986   -5189.2653   -6427.9925   -4142.0026 
   50350    298.26093   -6436.1957   -5236.2621   -6494.1084    -4205.932 
   50400    298.43546   -6424.3385   -5223.7028   -6400.2296   -3934.0191 
   50450    303.46416    -6395.979   -5175.1123   -6301.8197   -3767.4353 
   50500    297.34534   -6344.2746   -5148.0245   -5954.5222    -2696.732 
   50550    302.18294   -6348.4573   -5132.7452   -6088.2354   -3194.9267 
   50600    310.24706   -6392.2641   -5144.1092   -6194.5216   -3512.3235 
   50650     309.1754   -6433.6842   -5189.8407   -6580.1721   -4648.9297 
   50700     302.0635    -6473.082   -5257.8503   -6577.8687   -4413.8202 
   50750    308.01163   -6533.8689   -5294.7074   -7162.9215   -6246.8536 
   50800     299.7799   -6518.4411   -5312.3966    -6894.036   -5288.6172 
   50850    301.72464   -6486.2856   -5272.4172   -6670.7753    -4675.769 
[...]
   87650    292.99805   -6393.7111   -5214.9507   -6027.3137   -2716.3441 
   87700    308.22016   -6449.9551   -5209.9546   -6163.1318   -3187.1928 
   87750    291.27624   -6394.5807   -5222.7472   -5793.8281   -1909.5555 
   87800    305.68986   -6402.4405   -5172.6196   -6311.6769   -3808.7303 
   87850    299.21469   -6328.8135   -5125.0429   -5839.0941   -2387.6136 
   87900    306.41417   -6305.7979   -5073.0631   -5589.0713   -1725.4059 
   87950    308.96921   -6272.7691   -5029.7551   -5475.4763   -1490.3835 
   88000    301.03093   -6201.2419   -4990.1644   -4980.9953    30.659157 
   88050    297.48237   -6122.7338   -4925.9325   -5114.9261   -631.94867 
   88100    305.33253   -6058.7335   -4830.3503   -4845.5176   -50.716027 
   88150    300.90868   -5966.3661   -4755.7804   -3942.7612    2718.5382 
   88200    302.26156     -5915.54   -4699.5115   -4040.3983    2203.9143 
   88250    319.24422   -5973.8924    -4689.541   -4164.7496    1754.7749 
   88300    304.03661    -5911.709   -4688.5393   -3908.8641    2607.0444 
   88350    296.90676   -5906.2225   -4711.7369   -3969.2425    2482.7204 
   88400    299.43613   -5902.2888   -4697.6273   -4326.0608    1242.4282 
   88450    304.06195   -5847.7693   -4624.4977   -3626.4395    3337.2636 
   88500    303.76366   -5783.1156    -4561.044   -3491.9108    3574.9214 
   88550    312.52544   -5815.8864   -4558.5653   -4054.0226     1687.068 
   88600     310.7627   -5880.8638   -4630.6344   -4220.3655    1371.8393 
   88650    298.46266   -5900.6894   -4699.9442   -4239.4453    1539.7965 
   88700    304.51616   -5956.1623   -4731.0633   -4457.0818    916.12768 
   88750    302.74028   -5941.5033   -4723.5489    -4371.803    1176.1529 
   88800    305.85028   -5907.4109   -4676.9447   -4043.8535    2116.9026 
   88850    310.17703   -5853.7431   -4605.8699   -3778.6845    2765.9066 
   88900    312.01885   -5818.6607   -4563.3777   -3676.2307    2966.4037 
   88950    313.90896   -5852.7228   -4589.8356   -3944.7416    2157.0375 
   89000     299.9916   -5861.6183   -4654.7221   -3933.5926    2411.2815 
   89050    298.47917   -5903.4822   -4702.6706   -4413.4848    966.96688 
   89100    309.15785   -5969.9842   -4726.2113   -4411.9689      1050.75 
   89150    311.82851   -5998.2109   -4743.6936   -4639.4969    348.40853 
   89200    303.79902   -5979.9795   -4757.7657   -4328.3523     1435.854 
   89250    313.20003   -6023.8305   -4763.7955    -4449.671    1050.3558 
   89300    305.44057   -5990.8716   -4762.0536   -4333.9875    1431.3491 
   89350    298.97928   -5971.5106   -4768.6871   -4518.0538    838.05678 
   89400    304.21398   -5982.8888   -4759.0055    -4367.468    1309.2061 
   89450    301.58997   -5904.3457   -4691.0191   -4287.4392    1349.4729 
   89500    304.71286   -5848.6891   -4622.7988   -4166.2922    1526.4468 
   89550    320.83447    -5850.425   -4559.6759   -4024.3019    1790.1602 
   89600    319.88559   -5821.9687    -4535.037   -3719.1877    2728.0016 
   89650     312.2968   -5851.5209   -4595.1197   -4215.1053    1270.6758 
   89700    300.10953   -5873.2279   -4665.8573    -4227.392    1466.1211 
   89750    298.86195   -5896.3599   -4694.0084   -4108.3401    1958.3322 
   89800    309.07679   -5927.1834   -4683.7366   -3786.9169    2998.7466 
   89850    301.87352   -5882.7534   -4668.2861   -4091.4124    1928.9253 
   89900    305.76692    -5904.307   -4674.1761   -4093.2115    1942.6041 
   89950    311.35503   -5964.6887   -4712.0763   -4354.4497    1195.8164 
  STMD DIG: istep=90000  TSC1=10000 Tlow=1.075815
   90000    304.73358   -5985.1277    -4759.154    -4461.781    994.34297 
   90050    312.44528   -6038.9836    -4781.985   -4496.7142    953.87592 
   90100    295.57669   -6023.0783   -4833.9437   -4591.7426    809.86141 
   90150     304.0366   -6079.5056    -4856.336   -4942.8133   -289.15912 
   90200    307.45048   -6115.5872   -4878.6832   -5146.5309   -895.61741 
   90250    301.96466   -6114.9598   -4900.1258   -4853.9582      154.373 
   90300    307.31068    -6130.455   -4894.1134   -5067.7057   -580.45061 
   90350    313.08582   -6134.0494   -4874.4738   -5032.6016   -528.74071 
   90400    300.35367   -6073.5545   -4865.2016   -4533.5783    1108.8678 
   90450    308.90617   -6096.6739   -4853.9135   -4801.0158    176.87705 
   90500    315.09783   -6157.5336   -4889.8635   -4831.8805    193.88099 
   90550    295.14545   -6161.3123   -4973.9126   -4736.0023    795.51435 
   90600    299.20313   -6206.2659   -5002.5418   -5348.7159   -1157.5217 
   90650    302.42887     -6224.76   -5008.0584   -5601.3059   -1983.6753 
   90700    301.34959   -6216.4576   -5004.0981   -5389.6633   -1289.2363 
   90750    309.78891   -6254.6967    -5008.385   -5438.8895   -1439.5025 
   90800    301.14623   -6282.4837   -5070.9423   -5644.0708   -1916.4021 
   90850    295.23144   -6274.0884   -5086.3428   -5665.2651   -1935.7754 
   90900    301.72453   -6226.2209    -5012.353   -5360.0796   -1162.7134 
   90950    317.74996   -6183.9026   -4905.5628   -5167.4337   -875.63257 
   91000     305.0818   -6068.3262   -4840.9516   -4557.3381    948.33428 
   91050    304.63231      -6056.6   -4831.0337   -4339.2623    1644.3638 
   91100     300.8521   -6034.8893   -4824.5312   -4847.8978   -78.132288 
   91150    296.68927   -5981.9825   -4788.3719   -4156.4654    2112.9416 
   91200    302.74727    -5971.739   -4753.7565   -4167.4636    1960.4207 
   91250    311.05174   -5967.7465   -4716.3542    -4195.336    1742.1581 
   91300    316.46179   -6005.7884    -4732.631   -4476.1621    857.56949 
   91350    305.28338   -6041.9654   -4813.7799   -4687.4103    422.54908 
   91400    314.89443     -6176.18   -4909.3282    -5258.051   -1166.0442 
   91450    293.39729   -6185.0572   -5004.6906   -5331.8668   -1093.9978 
   91500    298.53791   -6231.6254   -5030.5776   -5498.4146   -1564.3332 
   91550    302.75898   -6236.7492   -5018.7196   -5622.2228    -2017.968 
   91600    296.51021   -6157.1864   -4964.2962   -4876.1958    294.58635 
   91650    308.07538   -6085.2315   -4845.8135   -4568.3544    927.75572 
   91700    311.50229   -6023.8591   -4770.6542   -4108.7277    2213.3213 
   91750    304.21681   -6016.5036   -4792.6089   -4434.8677    1196.1996 
   91800    284.35322   -5977.9223   -4833.9409   -4565.1339    898.82521 
   91850    292.11174   -5959.0501   -4783.8553   -4493.4794    970.94628 
   91900    308.31471   -5926.9119    -4686.531    -4056.279    2107.4095 
   91950    309.54193   -5854.3994   -4609.0812   -3539.7426    3575.6081 
   92000    308.74127   -5828.8304   -4586.7334   -3822.8874    2554.1153 
   92050    300.37702   -5813.9517   -4605.5049   -3811.8224    2653.8812 
   92100     300.1605   -5844.3073   -4636.7316     -4063.98    1915.1419 
   92150    306.13607    -5909.567    -4677.951   -4253.1916    1420.2918 
   92200    291.54894   -5868.4372   -4695.5067   -3909.3274    2628.7923 
   92250    308.52026   -5916.4112   -4675.2034    -4456.696     730.6356 
   92300    315.07704   -5936.0124    -4668.426   -4427.2801    806.33311 
   92350    307.12827   -5937.2715   -4701.6638   -4448.6941     845.8691 
   92400    304.32191   -5952.6737   -4728.3562   -4468.9445    867.40954 
   92450    304.77982    -5965.624   -4739.4643   -4482.3285    859.79954 
   92500    300.05107     -5958.49   -4751.3545   -4230.9125    1740.2314 
   92550    304.87082   -5992.2763   -4765.7505    -4247.775     1731.984 
   92600    311.39052   -6059.3715   -4806.6163   -4693.7213    377.49323 
   92650    298.30591   -6117.3237   -4917.2092   -5189.8228   -911.55349 
   92700    294.62496    -6178.186   -4992.8803   -5252.1843   -867.04934 
   92750    293.44552   -6160.3706   -4979.8099   -5144.5472    -550.8412 
   92800    304.68244   -6137.1946   -4911.4266   -4889.3488    73.823057 
   92850    309.64705   -6102.6765   -4856.9355   -4797.6241    198.32297 
   92900    296.48255   -5988.7711   -4795.9922   -4153.8945    2147.0185 
   92950    314.44626   -6022.0709   -4757.0222   -4700.5147    188.94735 
   93000    291.63477   -5924.0974   -4750.8216   -4187.7794     1882.676 
   93050    310.66989    -5970.862    -4721.006   -4570.2157    504.20601 
   93100    297.68676   -5853.4692   -4655.8456   -4110.8374    1822.3748 
   93150    314.24238   -5839.1781   -4574.9496   -3716.5178     2870.387 
   93200    316.38358     -5779.81   -4506.9672   -3859.5209    2164.9029 
   93250    307.33333   -5703.4523   -4467.0196   -3760.7002    2361.7603 
   93300    315.14088   -5769.9694   -4502.1261   -3935.5526    1894.4842 
   93350    302.46342   -5840.0759   -4623.2353   -3837.0643    2628.7646 
   93400    292.03581   -5912.5825   -4737.6932   -4207.3824    1773.2304 
   93450    298.74235   -5991.4576   -4789.5872   -4528.5147    872.96299 
   93500    301.92596   -6012.6733   -4797.9949   -4686.1957    373.82955 
   93550    311.48455   -6027.8835     -4774.75    -4765.813    29.883278 
   93600    315.14014   -6043.0788   -4775.2385   -4766.1374    30.431808 
   93650    307.19576   -6057.9082   -4822.0289   -4812.1954    32.880806 
   93700    304.50208   -6106.2644   -4881.2222   -4845.0848    120.83456 
   93750    302.79048   -6132.6769   -4914.5205   -5013.3992   -330.62613 
   93800    307.77922   -6144.9769   -4906.7503   -5145.7371   -799.11358 
   93850    301.48028    -6093.476   -4880.5906   -5113.5602   -778.99368 
   93900    305.53852   -6059.3442   -4830.1321   -4709.0612    404.83166 
   93950    305.92697   -6035.5152   -4804.7404   -4827.8631   -77.316763 
   94000    312.99787    -6058.156   -4798.9343   -4756.5724    141.64806 
   94050    307.53752   -6059.1784   -4821.9242   -4890.0283   -227.72339 
   94100    311.10661   -6121.6517   -4870.0387   -5307.0431   -1461.2364 
   94150    304.12896   -6146.8879   -4923.3466   -5178.3806   -852.77147 
   94200    311.95959   -6201.9051   -4946.8605   -5347.1131   -1338.3473 
   94250    307.74503   -6198.8063   -4960.7172   -5254.1461   -981.15455 
   94300    310.35495   -6238.9599   -4990.3709   -5633.5473   -2150.6251 
   94350    293.91511   -6202.1388    -5019.689   -5429.9785   -1371.9083 
   94400    305.76335   -6197.9599   -4967.8434   -5034.9438    -224.3676 
   94450     302.1677   -6155.6178   -4939.9669   -5078.1834   -462.16217 
   94500    299.46844   -6136.9884   -4932.1969   -5282.3102   -1170.6937 
   94550    300.47297   -6137.2748    -4928.442    -4997.289    -230.2078 
   94600    295.74513   -6109.2658   -4919.4536   -4870.7369    162.89687 
   94650    318.25392   -6161.6546   -4881.2873   -5171.9572   -971.92963 
   94700    306.55185   -6104.4214   -4871.1327   -4838.2168    110.06249 
   94750    303.10172   -6099.1413   -4879.7328   -4833.5149    154.54135 
   94800    299.88059   -6085.0894   -4878.6398   -4743.0134    453.50163 
   94850    302.70294   -6085.8483   -4868.0441   -4870.5832   -8.4900538 
   94900    299.46646   -6066.9032   -4862.1196   -4469.9269     1311.397 
   94950     299.0876   -6030.4743    -4827.215   -4516.9081    1037.5906 
   95000     314.1553   -6066.7331   -4802.8549   -4761.4592      138.417 
   95050    306.17246   -6062.1338   -4830.3714   -4817.3349    43.590802 
   95100    307.93969   -6123.8167   -4884.9445   -4934.9345    -167.1541 
   95150    312.51245   -6237.6044   -4980.3356   -5769.5492   -2638.9382 
   95200    309.16027   -6324.6732   -5080.8905   -6192.4638   -3716.8306 
   95250    297.71842   -6342.7029    -5144.952   -5909.7943   -2557.4465 
   95300     293.8762   -6344.8847   -5162.5914   -5846.5262   -2286.9117 
   95350    303.44342   -6340.3956   -5119.6124   -5556.3343   -1460.2916 
   95400    309.55375   -6325.0723   -5079.7066   -5455.5495   -1256.7274 
   95450    316.59518   -6330.1654   -5056.4713   -5857.3118   -2677.8155 
   95500    310.06421   -6313.4167   -5065.9974   -5718.7097   -2182.5109 
   95550     303.9231   -6324.5758   -5101.8628   -5737.9988   -2127.0839 
   95600    310.65106   -6385.6626   -5135.8823   -5908.3825   -2583.0525 
   95650    310.69394   -6471.3697   -5221.4169   -6655.2873   -4794.5138 
   95700    294.93089   -6506.1231   -5319.5867   -6774.3044   -4864.2219 
   95750    287.80597   -6511.3183   -5353.4461    -7009.011   -5535.8062 
   95800      303.802   -6509.7147   -5287.4889   -6432.8665   -3829.8639 
   95850    305.56489   -6426.9271    -5197.609   -6514.1926   -4402.3351 
   95900    312.26174   -6380.9399   -5124.6797   -5839.8767    -2391.445 
   95950    305.75363    -6349.305   -5119.2275   -5907.6905   -2636.4283 
   96000     298.8445   -6313.4691   -5111.1878   -5747.8216   -2128.7486 
   96050    301.05594   -6289.4836   -5078.3054   -5747.8478   -2238.7869 
   96100     311.2772   -6249.3114   -4997.0121   -5872.5376   -2927.5443 
   96150     309.4096   -6214.8633   -4970.0776   -5047.9592   -260.41714 
   96200    300.64159   -6250.0521   -5040.5409    -5750.769   -2374.8297 
   96250    293.96081    -6254.037   -5071.4033   -5921.1499   -2841.3458 
   96300    304.81007   -6242.3656   -5016.0842   -5476.0898   -1538.1467 
   96350    309.48561   -6231.1892   -4986.0977    -5348.978   -1213.3836 
   96400     297.6548   -6163.8579   -4966.3629   -5167.9525   -674.06658 
   96450    321.43604   -6213.1775   -4920.0082   -5322.8864   -1347.1267 
   96500    315.41766   -6164.9279   -4895.9712   -5280.1154    -1284.485 
   96550    303.39928   -6118.5846   -4897.9789   -4946.4341   -162.02247 
   96600    295.32866   -6112.9078   -4924.7711   -4803.9513    403.99191 
   96650    314.11845   -6206.9901   -4943.2602   -5357.4861   -1385.0706 
   96700    301.54806   -6206.2391   -4993.0811   -5374.0424   -1273.8419 
   96750    294.73327    -6199.453   -5013.7116   -5380.6564   -1226.9742 
   96800    316.28506   -6258.9754    -4986.529   -5560.0092   -1917.5783 
   96850    308.79856   -6243.5768   -5001.2493   -5539.7461   -1800.6021 
   96900    315.18928     -6300.47    -5032.432   -5501.3284   -1567.8754 
   96950    312.51895   -6347.1584   -5089.8634   -5849.3602   -2539.5724 
   97000    301.49722    -6352.475   -5139.5215   -6286.7064   -3835.9073 
   97050    310.45843   -6407.4391   -5158.4338   -6295.6815   -3802.6794 
   97100    313.01522   -6436.0471   -5176.7556   -6690.4445   -5061.4072 
   97150    303.53476   -6430.9939   -5209.8433   -6611.3798   -4686.3972 
   97200    312.34556   -6494.6846   -5238.0871   -6516.1773   -4273.6224 
   97250    299.08415   -6489.6104   -5286.3649   -6754.8469   -4910.2464 
   97300    318.40551   -6540.9136   -5259.9364   -6972.0192   -5724.7882 
   97350     309.8816   -6496.0708   -5249.3861   -6745.8837   -5003.9238 
   97400    300.83301   -6435.4526   -5225.1714   -6499.4173   -4260.7684 
   97450     307.3753   -6409.6793   -5173.0778   -5978.7306    -2693.907 
   97500    315.50726   -6428.8182    -5159.501   -6394.6873   -4130.1624 
   97550    315.09481   -6466.8783   -5199.2204   -6677.7937   -4943.9895 
   97600    311.89665   -6507.2214     -5252.43   -6716.5326    -4895.603 
   97650    306.98708   -6534.1231   -5299.0834   -6801.7041    -5024.398 
   97700    299.53395   -6535.9619   -5330.9069   -6973.8707   -5493.6711 
   97750    312.43925   -6607.1364   -5350.1621   -7272.1886    -6426.789 
   97800    300.08665   -6623.5594   -5416.2808   -7304.8629   -6314.9589 
   97850    311.94847   -6685.3087   -5430.3088   -7826.5317   -8012.3863 
   97900    288.49003     -6610.84   -5450.2158   -7185.2308   -5801.4679 
   97950    302.08774   -6602.9623   -5387.6331   -7190.7462   -6029.1713 
   98000    324.11614   -6612.5095   -5308.5578   -7312.2724    -6699.934 
   98050    312.95672   -6568.4499   -5309.3938   -7216.4699   -6376.7986 
   98100    307.04131   -6585.9411   -5350.6832   -7084.3233   -5796.8706 
   98150    291.52338   -6613.3567    -5440.529   -7316.4125    -6272.498 
   98200    307.42093   -6693.5922    -5456.807   -7638.4943   -7295.0314 
   98250    301.04961   -6689.3355   -5478.1828    -7597.627   -7086.9054 
   98300    298.03538   -6678.0892   -5479.0631    -7716.552   -7481.6186 
   98350    301.14325   -6645.7216   -5434.1922   -7275.9137   -6158.2686 
   98400    301.45043   -6589.7359   -5376.9707   -6838.2184   -4886.0565 
   98450    312.18362   -6575.2202   -5319.2743   -7067.5752   -5845.8927 
   98500    301.11754   -6539.0297   -5327.6037   -6795.7722    -4909.198 
   98550    310.34088   -6565.9483   -5317.4159   -7000.1869   -5626.7767 
   98600    308.73132   -6542.4747   -5300.4177    -6657.021   -4536.1513 
   98650    304.85453   -6519.1501   -5292.6898   -6550.1899   -4204.7741 
   98700     310.9248   -6548.2081   -5297.3266   -6911.8697   -5398.6393 
   98750    295.16829   -6543.7011   -5356.2095   -6842.4859   -4969.7466 
   98800    300.62563    -6598.391   -5388.9441   -6916.9171   -5109.1701 
   98850    310.21689   -6651.7633   -5403.7297   -7470.0688   -6909.3351 
   98900    295.63912   -6628.5879   -5439.2022   -7410.5615    -6591.746 
   98950    312.97712   -6682.4616   -5423.3233   -7500.5613   -6945.7781 
   99000    309.12327   -6679.6206   -5435.9868   -7595.2508   -7220.0535 
   99050    300.68328   -6645.7839    -5436.105   -7074.3341   -5477.8396 
   99100    299.92884     -6631.42   -5424.7763   -6956.5762   -5121.9662 
   99150    307.54433   -6659.7633   -5422.4817   -7542.3185   -7088.2184 
   99200    307.77288   -6654.2529   -5416.0518   -7491.6116    -6940.167 
   99250    308.11361   -6633.4108   -5393.8389   -6804.6805   -4717.5108 
   99300    302.25383   -6593.1802   -5377.1828   -7006.3588    -5447.568 
   99350    306.11448   -6567.6438   -5336.1146   -7073.2948   -5808.7079 
   99400    310.40452   -6546.8724    -5298.084   -6895.6864   -5341.9936 
   99450    304.74136   -6521.1659   -5295.1609   -6652.6495   -4539.1112 
   99500    308.20293   -6513.8325   -5273.9013   -6745.6332   -4921.1132 
   99550    316.91543   -6508.6962   -5233.7138   -6459.3153   -4098.1131 
   99600     297.3301   -6454.8988   -5258.7101   -6150.9236   -2983.3449 
   99650    302.73978   -6510.7684    -5292.816   -6517.6568   -4095.5696 
   99700    292.82326   -6514.8395   -5336.7823   -6612.5288   -4265.7858 
   99750    301.19756    -6586.462   -5374.7141   -7238.3903   -6231.6797 
   99800    291.53551   -6592.8619   -5419.9854    -6909.132   -4979.3436 
   99850    296.63538   -6626.4757   -5433.0819   -7287.1897   -6199.6852 
   99900    318.70476   -6703.1534   -5420.9723   -7797.2524   -7945.7022 
   99950    307.49327   -6714.1736   -5477.0974   -7812.3518   -7808.5226 
  STMD DIG: istep=100000  TSC1=10000 Tlow=0.765862
  100000     293.6795   -6731.0214   -5549.5194   -7952.0114   -8033.3486 
Loop time of 673.675 on 6 procs for 100000 steps with 2004 atoms

Performance: 25.650 ns/day, 0.936 hours/ns, 148.439 timesteps/s
88.3% CPU use with 6 MPI tasks x no OpenMP threads

MPI task timing breakdown:
Section |  min time  |  avg time  |  max time  |%varavg| %total
---------------------------------------------------------------
Pair    | 388.26     | 435.21     | 509.47     | 191.1 | 64.60
Bond    | 0.35705    | 1.3451     | 2.7798     |  79.9 |  0.20
Kspace  | 73.9       | 147.37     | 192.98     | 323.9 | 21.88
Neigh   | 44.18      | 44.218     | 44.26      |   0.4 |  6.56
Comm    | 19.729     | 19.803     | 19.879     |   1.5 |  2.94
Output  | 0.047261   | 0.055394   | 0.094425   |   7.4 |  0.01
Modify  | 24.167     | 24.224     | 24.283     |   0.7 |  3.60
Other   |            | 1.448      |            |       |  0.21

Nlocal:    334 ave 345 max 323 min
Histogram: 1 0 1 0 1 1 0 1 0 1
Nghost:    5920.5 ave 5986 max 5886 min
Histogram: 2 2 0 0 0 0 1 0 0 1
Neighs:    117953 ave 124510 max 111554 min
Histogram: 1 0 1 0 1 0 2 0 0 1

Total # of neighbors = 707716
Ave neighs/atom = 353.152
Ave special neighs/atom = 2.34032
Neighbor list builds = 8950
Dangerous builds = 0

#write_restart     restart.peptide.*
#write_data        data.peptide.${rep}
Total wall time: 0:11:13
