LAMMPS (11 May 2018)
OMP_NUM_THREADS environment is not set. Defaulting to 1 thread. (../comm.cpp:87)
  using 1 OpenMP thread(s) per MPI task
units           real
atom_style      full

pair_style        lj/charmm/coul/long 8.0 10.0 10.0
bond_style        harmonic
angle_style       charmm
dihedral_style    charmm
improper_style    harmonic
kspace_style      pppm 0.0001

# Define variables
variable tlo equal 150
variable thi equal 350
variable rep equal 0
variable temp equal 305.0
variable steps equal 1000000

read_data         data.peptide
  orthogonal box = (36.8402 41.0137 29.7681) to (64.2116 68.3851 57.1395)
  2 by 2 by 2 MPI processor grid
  reading atoms ...
  2004 atoms
  reading velocities ...
  2004 velocities
  scanning bonds ...
  3 = max bonds/atom
  scanning angles ...
  6 = max angles/atom
  scanning dihedrals ...
  14 = max dihedrals/atom
  scanning impropers ...
  1 = max impropers/atom
  reading bonds ...
  1365 bonds
  reading angles ...
  786 angles
  reading dihedrals ...
  207 dihedrals
  reading impropers ...
  12 impropers
  4 = max # of 1-2 neighbors
  7 = max # of 1-3 neighbors
  14 = max # of 1-4 neighbors
  18 = max # of special neighbors
#read_data         data.peptide.${rep}

neighbor          2.0 bin
neigh_modify      delay 5

timestep          2.0

thermo_style      custom step temp pe etotal enthalpy press
thermo            50

fix               1 all nvt temp ${temp} ${temp} 100.0 tchain 1
fix               1 all nvt temp 305 ${temp} 100.0 tchain 1
fix               1 all nvt temp 305 305 100.0 tchain 1
fix	              fxSTMD all stmd ${steps} constant_f 0.001 0.00002 ${tlo} ${thi} -8500 -5500 12 50000 500000 ${temp} no
fix	              fxSTMD all stmd 1000000 constant_f 0.001 0.00002 ${tlo} ${thi} -8500 -5500 12 50000 500000 ${temp} no
fix	              fxSTMD all stmd 1000000 constant_f 0.001 0.00002 150 ${thi} -8500 -5500 12 50000 500000 ${temp} no
fix	              fxSTMD all stmd 1000000 constant_f 0.001 0.00002 150 350 -8500 -5500 12 50000 500000 ${temp} no
fix	              fxSTMD all stmd 1000000 constant_f 0.001 0.00002 150 350 -8500 -5500 12 50000 500000 305 no
fix               2 all shake 0.0001 10 0 b 4 6 8 10 12 14 18 a 31
  19 = # of size 2 clusters
  6 = # of size 3 clusters
  3 = # of size 4 clusters
  640 = # of frozen angles

group             peptide type <= 12
84 atoms in group peptide
dump              mydump peptide dcd 1000 ${rep}.dcd
dump              mydump peptide dcd 1000 0.dcd
dump_modify       mydump pad 8
dump_modify       mydump unwrap yes

run               ${steps}
run               1000000
PPPM initialization ...
  using 12-bit tables for long-range coulomb (../kspace.cpp:321)
  G vector (1/distance) = 0.268725
  grid = 15 15 15
  stencil order = 5
  estimated absolute RMS force accuracy = 0.0228209
  estimated relative force accuracy = 6.87243e-05
  using double precision FFTs
  3d grid and FFT values/proc = 2744 512
STMD: STAGE= 1, #bins= 251  binsize= 12.000000
  Emin= -8500.000000 Emax= -5500.000000 f-value= 1.024290 df= 0.001000
  f-tolerances: STG3= 1.000480 STG4= 1.000048
Neighbor list info ...
  update every 1 steps, delay 5 steps, check yes
  max neighbors/atom: 2000, page size: 100000
  master list distance cutoff = 12
  ghost atom cutoff = 12
  binsize = 6, bins = 5 5 5
  1 neighbor lists, perpetual/occasional/extra = 1 0 0
  (1) pair lj/charmm/coul/long, perpetual
      attributes: half, newton on
      pair build: half/bin/newton
      stencil: half/bin/3d/newton
      bin: standard
  STMD DIG: istep= 0  TSC1= 50000 Tlow= 1.147104
Per MPI rank memory allocation (min/avg/max) = 15.06 | 15.16 | 15.45 Mbytes
Step Temp PotEng TotEng Enthalpy Press 
       0    303.06656   -6135.9847   -4916.7176   -4142.6592    2588.2629 
      50    290.59402   -6017.9277   -4848.8389   -4461.0573    1296.6474 
     100    312.22832   -5952.8695   -4696.7438   -3921.0777    2593.6385 
     150    311.15712   -5822.4971   -4570.6809   -3843.7682    2430.6191 
     200    314.72129   -5777.0155   -4510.8603   -3924.6802    1960.0436 
     250    322.39358   -5830.8805   -4533.8589    -3652.915    2945.6618 
     300     296.0609   -5819.3641   -4628.2815   -4229.6533    1332.9155 
     350    297.02049   -5890.9639   -4696.0208   -4362.0756    1116.6315 
     400    294.54656   -5858.6034   -4673.6131   -4146.9659    1760.9802 
     450    316.01931   -5873.3615   -4601.9842   -4070.0211    1778.7553 
     500    316.72722   -5830.9269   -4556.7016   -3686.7593    2908.8753 
     550    305.71614   -5834.3726    -4604.446   -3704.6557    3008.6798 
     600     297.5321   -5888.4942   -4691.4928   -4143.3743    1832.7751 
     650    297.16766   -5931.5094   -4735.9742   -4268.2232    1564.0457 
     700      297.115   -5888.2825   -4692.9591   -4106.2672     1961.755 
     750    313.86199   -5848.2002   -4585.5021   -4068.0447    1730.2516 
     800    311.70001   -5769.8616   -4515.8613   -3815.0151    2343.4589 
     850    314.00032   -5795.2248   -4531.9701   -4256.6346    920.65475 
     900    307.15988   -5863.1405   -4627.4056   -4051.6829    1925.0767 
     950    295.11405   -5940.5604   -4753.2871   -4367.4042    1290.2985 
    1000    294.01016   -5967.5472    -4784.715   -4513.2306    907.77758 
    1050    300.64736   -5913.8946   -4704.3602   -4103.2317    2010.0277 
    1100    310.53012   -5858.3397   -4609.0459   -4138.8268    1572.2985 
    1150    316.57805   -5856.8489   -4583.2237   -3444.6181    3807.2202 
    1200    303.26281   -5865.7924   -4645.7358   -4206.1124    1469.9938 
    1250    297.43467   -5938.3213   -4741.7119   -4240.7457    1675.1089 
    1300     289.3643   -5923.9384   -4759.7969   -4093.6195    2227.5352 
    1350    292.73048   -5879.0616   -4701.3776    -4384.868    1058.3311 
    1400    308.98197   -5864.0339   -4620.9686   -3527.1935    3657.3176 
    1450    321.93718   -5923.9468   -4628.7613   -3976.6498    2180.5022 
    1500     298.8185   -5899.6169   -4697.4402   -4122.2299    1923.3634 
    1550    288.65761   -5910.1892   -4748.8908   -4286.8398    1544.9859 
    1600    305.69454   -5942.1067    -4712.267   -4604.1054    361.66585 
    1650    296.41574   -5817.7145   -4625.2043   -3907.7266    2399.0711 
    1700    311.99661   -5774.1449   -4518.9513   -3617.4496    3014.4024 
    1750    323.32014   -5765.7805   -4465.0312   -3937.2519    1764.7656 
    1800    311.15064   -5800.1492   -4548.3591   -4041.9599    1693.2758 
    1850     296.4093   -5892.8582   -4700.3739   -4138.2961    1879.4513 
    1900    293.67807    -5957.699   -4776.2027   -4712.4359    213.22055 
    1950    301.44882   -5999.6865   -4786.9277   -4250.8279    1792.5875 
    2000     310.6651   -6006.4667   -4756.6299   -3803.3978    3187.3763 
    2050    308.94557   -5961.2573   -4718.3383   -4232.5084     1624.497 
    2100    305.76013   -5911.1872   -4681.0836   -4107.1703    1919.0265 
    2150    304.18479   -5863.2515   -4639.4857   -4019.8171    2072.0211 
    2200    305.58046   -5811.5377   -4582.1569   -3837.1442    2491.1413 
    2250    313.32177   -5824.8714   -4564.3466   -4004.0468    1873.5061 
    2300    311.65993   -5835.1486   -4581.3095    -4052.594     1767.896 
    2350    296.61634   -5822.8033   -4629.4861   -4137.0804    1646.4848 
    2400    300.74892   -5860.9894   -4651.0465    -4200.427    1506.7619 
    2450    307.05126   -5905.4462   -4670.1482   -4138.7541    1776.8527 
    2500     311.8866   -5977.8805   -4723.1296   -4304.9499    1398.2909 
    2550     297.7109   -5961.1784   -4763.4577   -4189.4922    1919.2009 
    2600    296.60783   -5952.7661   -4759.4832   -4091.3371    2234.1178 
    2650    303.37414   -5926.3769   -4705.8725   -3779.7674      3096.67 
    2700    310.76188   -5906.6367   -4656.4107   -4178.8108    1596.9778 
    2750    298.31284     -5836.03   -4635.8876   -3835.1886    2677.3424 
    2800    312.14487   -5898.7858   -4642.9958   -4152.1902    1641.1345 
    2850    310.94679   -5925.4078   -4674.4378    -4255.119    1402.1002 
    2900    319.28211   -5962.0433   -4677.5395   -4212.0355    1556.5321 
    2950    300.90466   -5900.0851   -4689.5155   -4097.6766    1978.9654 
    3000    292.65528   -5874.9645   -4697.5831   -4115.2076    1947.3219 
    3050    310.93358   -5947.1672   -4696.2503   -4333.4935    1212.9703 
    3100    302.37481    -5942.799   -4726.3149   -4400.5178    1089.3863 
    3150    297.46654   -5972.5932   -4775.8556   -4584.7245    639.09572 
    3200    303.21258   -6011.8773   -4792.0228   -4348.8087    1482.0001 
    3250    303.67962   -5976.6473   -4754.9139   -4188.3703    1894.3837 
    3300    313.03429   -5978.7969   -4719.4287   -4573.5067    487.92755 
    3350    308.19716    -5955.887    -4715.979   -4061.9887    2186.7843 
    3400    313.34154   -6009.2414   -4748.6371   -4749.7528   -3.7306538 
    3450    294.48816   -6012.4406   -4827.6853   -4840.7738   -43.764899 
    3500    288.55887   -6012.8721   -4851.9709   -4496.3144    1189.2288 
    3550    305.02277   -6001.6802   -4774.5431   -4299.8896    1587.1257 
    3600     311.3557   -5925.0175   -4672.4024   -3645.1052     3435.032 
    3650    324.93548   -5925.5206   -4618.2727   -4209.8109    1365.7967 
    3700    304.50714   -5864.4764   -4639.4138   -4027.3782     2046.498 
    3750    300.30836   -5854.3013   -4646.1307   -4023.5224    2081.8509 
    3800     311.3682    -5891.122   -4638.4566   -4021.7311    2062.1801 
    3850    310.48515    -5916.776   -4667.6632   -4096.1863    1910.8796 
    3900    295.44048   -5858.9199   -4670.3333    -4118.708    1844.5008 
    3950    299.22533   -5838.4042   -4634.5908   -4084.1901    1840.4057 
    4000    307.45112   -5822.1417   -4585.2351    -4167.585    1396.5203 
    4050     312.9888   -5808.8403    -4549.655   -4074.4991    1588.8058 
    4100    310.16138   -5801.6564   -4553.8462   -4113.0634    1473.8701 
    4150    311.35325    -5851.024   -4598.4187   -4013.5726     1955.583 
    4200    303.29816   -5869.5234   -4649.3245   -3995.3627    2186.6892 
    4250    299.10677   -5896.4752   -4693.1387   -3988.0906    2357.5094 
    4300    305.84215    -5972.576   -4742.1425   -4603.5968    463.26305 
    4350    304.53528   -5987.9742   -4762.7983   -4596.2116    557.02559 
    4400    304.08215   -5993.9935   -4770.6406   -4501.5818    899.66708 
    4450    313.78739   -6015.3515   -4752.9535   -4606.8611    488.49754 
    4500    300.80483   -5962.8929    -4752.725   -4141.9935    2042.1375 
    4550    314.11796   -6022.6385   -4758.9106   -4593.0655    554.54557 
    4600    307.37505   -6031.9793   -4795.3787   -4671.1364    415.43602 
    4650    293.87372   -6028.4583    -4846.175   -4688.8386    526.09446 
    4700    300.65958   -6059.0384   -4849.4549    -4405.312    1485.1057 
    4750    302.91794   -6023.7849   -4805.1158    -4315.272    1637.9184 
    4800    308.78627   -6013.0928   -4770.8148   -4292.4161    1599.6488 
    4850    297.31511   -5926.4623   -4730.3339   -4088.1149    2147.4241 
    4900    306.64696   -5892.4319   -4658.7606   -4132.9998    1758.0162 
    4950    315.34956   -5855.7493   -4587.0665   -4247.9561    1133.9024 
    5000    312.32166   -5825.6861   -4569.1848   -3721.7859    2833.4959 
    5050    305.27976   -5818.7099   -4590.5389    -3906.758    2286.3969 
    5100    298.78065   -5818.0945   -4616.0701   -4188.8407    1428.5509 
    5150    313.05662   -5869.8361   -4610.3781   -4045.0794    1890.2211 
    5200    302.86293   -5843.1591   -4624.7112   -4188.9176    1457.1877 
    5250    304.14453   -5912.9449    -4689.341   -4191.1121    1665.9562 
    5300    297.56441    -5946.933   -4749.8016   -4615.5035    449.06041 
    5350    303.42282   -5971.2065   -4750.5062   -4344.1043     1358.909 
    5400    308.13785   -5965.9519   -4726.2826   -4232.8394    1649.9538 
    5450    310.37296   -5943.9529   -4695.2915   -4672.0999    77.547148 
    5500    307.34494   -5891.0485    -4654.569   -3855.2478    2672.7356 
    5550    311.54343    -5895.077   -4641.7066   -3893.7701    2500.9177 
    5600     300.5162   -5861.5837    -4652.577   -4010.3977    2147.2915 
    5650    323.03613   -5984.7069   -4685.1003   -4371.9001     1047.265 
    5700    308.10566   -6012.0239    -4772.484     -4645.79    423.63417 
    5750    287.00472   -5962.9493   -4808.3006   -4197.6743    2041.7857 
    5800    308.94822   -6012.9402   -4770.0106   -4384.8056    1288.0318 
    5850    297.52244   -5922.3082   -4725.3457   -4033.1862    2314.4129 
    5900    310.37719   -5939.8926   -4691.2142   -4500.8578    636.50562 
    5950    312.79408   -5909.8795   -4651.4776   -3891.6598    2540.6461 
    6000     299.5943    -5817.332   -4612.0342   -3965.2543    2162.6746 
    6050    314.54674   -5834.8633   -4569.4103   -4180.4769    1300.4987 
    6100    314.02327   -5817.0619   -4553.7149   -4095.7391    1531.3596 
    6150    311.54931   -5828.5941      -4575.2   -4021.2502    1852.2735 
    6200     309.6778   -5868.9206   -4623.0558   -4177.9993    1488.1607 
    6250    302.02806   -5887.5188   -4672.4297   -4287.1078    1288.4224 
    6300     296.1374   -5880.6629   -4689.2726   -4186.0434    1682.6759 
    6350    299.86276   -5867.4462   -4661.0683   -4092.9227    1899.7406 
    6400    305.63572   -5832.9629   -4603.3599    -4102.414    1675.0412 
    6450    314.19466   -5807.2399   -4543.2033   -4147.1135     1324.428 
    6500    323.96573   -5863.1937   -4559.8472   -3956.1658    2018.5638 
    6550    308.49081   -5899.1049   -4658.0155   -4168.4503     1636.987 
    6600    291.12682   -5912.4235   -4741.1912   -4383.3213    1196.6299 
    6650    291.03073   -5948.6407    -4777.795   -4220.6706    1862.8884 
    6700    302.32732   -5999.8503   -4783.5573   -4774.3409    30.817482 
    6750    305.70963   -6024.7518   -4794.8513   -4485.6638    1033.8478 
    6800    294.53697   -6012.3607    -4827.409   -4678.3351    498.46711 
    6850    297.17944   -6020.5447   -4824.9621   -4544.2852     938.5154 
    6900    310.76764   -6044.2059   -4793.9566   -4593.2355    671.16231 
    6950    290.81662    -5948.131   -4778.1467   -4169.8449     2034.013 
    7000    309.04158   -6006.7858   -4763.4807   -4288.8733    1586.9715 
    7050    298.81338   -5950.8513   -4748.6952   -4143.0326    2025.1882 
    7100    306.59137    -5951.039   -4717.5913   -3995.2963    2415.1785 
    7150    301.41834   -5895.3344   -4682.6983   -4110.0655    1914.7447 
    7200    304.38292   -5898.5862   -4674.0233   -4165.4789    1700.4487 
    7250    309.86431   -5923.3693   -4676.7542   -4401.8579    919.18623 
    7300    317.02432   -5953.0471   -4677.6266   -4223.4479    1518.6628 
    7350     306.5401   -5931.0685    -4697.827   -4333.4504    1218.3867 
    7400    308.89982      -5966.5   -4723.7652    -4386.447    1127.9097 
    7450    303.57404   -6009.3092   -4788.0005    -4279.453    1700.4592 
    7500    302.31611   -6053.7584   -4837.5104   -5009.1309   -573.85709 
    7550    297.80297   -6058.8517   -4860.7606   -4816.2886    148.70359 
    7600    306.72334   -6089.6039   -4855.6252   -4572.2363    947.58362 
    7650    305.88122   -6056.1871   -4825.5964   -4512.9655    1045.3615 
    7700    296.85623   -6002.1618   -4807.8795   -4325.1403    1614.1624 
    7750    298.40203   -5984.8586   -4784.3574   -4346.5685    1463.8596 
    7800    313.07631   -6002.0785   -4742.5412   -4230.9711    1710.5658 
    7850    306.76836    -5955.696   -4721.5362   -4545.7994    587.62107 
    7900     292.9969   -5863.4963   -4684.7404   -4007.3427    2265.0532 
    7950    311.53372   -5876.6835   -4623.3522   -3975.2551    2167.0789 
    8000    317.03845   -5857.6079   -4582.1306    -3795.035    2631.8559 
    8050    310.00517     -5862.74   -4615.5582   -3848.7715    2563.9481 
    8100    312.15651   -5934.1872   -4678.3504   -4139.0828    1803.1796 
    8150     306.2202   -5964.8043   -4732.8499   -4546.0499    624.61368 
    8200    308.63313    -6023.214   -4781.5521   -4806.1027   -82.091204 
    8250    304.91719   -6050.9236   -4824.2112   -4700.1678    414.77093 
    8300    294.30254   -5996.4487   -4812.4402    -4552.893    867.86254 
    8350    297.90632   -5950.6057   -4752.0988   -4242.5443    1703.8261 
    8400    317.68869   -5969.5077   -4691.4143   -4019.8495    2245.5494 
    8450    307.77064   -5902.5655   -4664.3734   -3902.0993    2548.8593 
    8500    316.93139   -5950.7091   -4675.6624   -4132.2532    1817.0282 
    8550    313.95888   -5965.8532   -4702.7652   -3986.5046    2395.0011 
    8600    301.88498    -5937.936   -4723.4225   -4401.8441      1075.28 
    8650    298.19321   -5920.5515   -4720.8904   -4174.8825    1825.7175 
    8700    302.97358   -5949.5978   -4730.7048   -4569.4638    539.15072 
    8750    299.66132   -5927.1596   -4721.5922   -4330.3272    1308.2951 
    8800    303.01891    -5893.557   -4674.4816   -4039.5151    2123.1734 
    8850    304.27322   -5839.6773   -4615.5557   -3796.4793    2738.7923 
    8900    310.89908   -5851.1987   -4600.4206   -3818.7639    2613.6697 
    8950    306.46673   -5840.6029   -4607.6566     -4100.27    1696.5774 
    9000    304.92252    -5853.225   -4626.4912   -4036.8899    1971.4834 
    9050    307.00395   -5894.6826    -4659.575   -4130.9437    1767.6143 
    9100    308.22285    -5927.483   -4687.4716   -4067.2231    2073.9602 
    9150    306.38271   -5968.3182   -4735.7099   -4949.3846   -714.47619 
    9200    300.34991   -5980.8453   -4772.5076   -4541.5243    772.35194 
    9250    300.87632   -5979.9646   -4769.5091   -4592.4565    592.02086 
    9300    302.06111   -5950.3032   -4735.0811   -4134.0376    2009.7434 
    9350    313.10473   -5976.9482   -4717.2966   -4647.3168     233.9953 
    9400    301.90589   -5954.2396    -4739.642   -4522.0671    727.51747 
    9450    304.61968   -5982.3964    -4756.881   -5012.8039   -855.74409 
    9500    294.96262   -5915.4947   -4728.8306   -4322.4947    1358.6883 
    9550    307.47836   -5916.0103   -4678.9941   -4448.2332     771.6084 
    9600    305.39966   -5886.1189   -4657.4655   -3913.7355    2486.8522 
    9650    303.07007   -5880.0223   -4660.7411   -4109.1057    1844.5345 
    9700    299.77386   -5831.7004   -4625.6802   -3963.8497    2213.0002 
    9750    304.37259   -5829.6846   -4605.1633   -3690.4557    3058.5595 
    9800    305.95299   -5855.1707   -4624.2913   -3917.0955    2364.6906 
    9850    301.16965   -5892.0885    -4680.453   -4188.2374     1645.849 
    9900    307.65343   -5966.6261   -4728.9056   -4267.3538    1543.3169 
    9950    310.84264    -6034.948    -4784.397   -4490.9712     981.1444 
   10000    296.94623   -6072.7921   -4878.1478   -4751.1893    424.51823 
   10050    294.52456   -6097.6235   -4912.7218   -4721.3543     639.8863 
   10100    290.18168   -6018.7726   -4851.3427   -4744.4972    357.26538 
   10150    315.53014   -6016.5584   -4747.1491   -4376.9015    1238.0179 
   10200    312.85997   -5972.3772   -4713.7102   -4446.0691    894.92697 
   10250    310.50926   -6024.2983   -4775.0885   -4518.9147    856.58291 
   10300    306.23007   -6088.7272    -4856.733   -5096.9479   -803.22023 
   10350    299.00033   -6116.4929   -4913.5847    -4530.476     1281.022 
   10400    295.25649   -6070.4317   -4882.5853   -4612.2153    904.05153 
   10450    314.53127   -6075.5759   -4810.1851   -4471.7772    1131.5539 
   10500    310.83341   -6050.1028    -4799.589   -4710.4465    298.07076 
   10550    310.96573   -6104.3959   -4853.3497   -4795.3715    193.86505 
   10600    296.77686   -6093.0594   -4899.0965   -4933.1442    -113.8474 
   10650    302.76494   -6122.2982   -4904.2446   -4400.4986    1684.4041 
   10700    309.41795   -6112.9385   -4868.1191   -4433.0973    1454.6073 
   10750    312.14984   -6087.8269   -4832.0169   -4560.9131    906.50511 
   10800    307.63535   -6062.4423   -4824.7945   -4076.3903    2502.4816 
   10850    307.54859   -6069.9511   -4832.6524    -4602.115    770.86101 
   10900    300.56058   -6033.7797   -4824.5944   -4714.6803    367.52625 
   10950    301.44368   -5984.2688   -4771.5307   -4673.9296    326.35451 
   11000    318.04623   -5988.9108    -4709.379   -4698.9445    34.890583 
   11050    311.66747   -5953.6867   -4699.8173    -4019.315    2275.4339 
   11100    295.39652     -5884.48   -4696.0703   -4105.8065    1973.6983 
   11150    298.46364   -5825.6997   -4624.9506   -3797.7217    2766.0524 
   11200    305.39812   -5784.0298   -4555.3827   -3787.1687    2568.7205 
   11250    308.12204   -5808.5812   -4568.9754   -4147.2592    1410.1164 
   11300    298.79339   -5831.9457   -4629.8701   -3960.8305    2237.1054 
   11350     299.2536   -5889.1288   -4685.2017   -4334.0949    1174.0156 
   11400    308.20539   -5921.1726   -4681.2315   -4643.3938    126.52015 
   11450    317.43274     -5940.62   -4663.5563   -4662.2216    4.4629246 
   11500    307.93766   -5893.1189   -4654.2549   -4089.6625    1887.8595 
   11550     301.6058   -5851.7361   -4638.3458   -3820.0467    2736.1931 
   11600    305.40842   -5835.1242   -4606.4356   -4047.7014    1868.2713 
   11650    317.85312   -5891.5784   -4612.8235   -4079.5191    1783.2401 
   11700    295.00561   -5860.8137   -4673.9767   -4293.7249    1271.4693 
   11750    306.42185   -5958.3306   -4725.5649   -4330.5015    1320.9957 
   11800    297.49603   -5978.7512   -4781.8949   -4773.2369    28.950128 
   11850    299.85905   -6042.9693   -4836.6064   -4858.5005   -73.208498 
   11900    306.09863   -6074.7793    -4843.314   -4639.2265    682.41872 
   11950    309.83353   -6104.5202    -4858.029   -4709.6429    496.16691 
   12000    305.05984   -6100.0219   -4872.7357   -4743.1712    433.23199 
   12050    307.06142   -6062.3337   -4826.9949   -4467.7481    1201.2339 
   12100    311.39293   -6010.8388    -4758.074   -4509.4277    831.41265 
   12150    308.43802   -5989.2549   -4748.3779   -4318.9067    1436.0473 
   12200     299.4141   -6029.1048    -4824.532   -4782.4543    140.69742 
   12250    301.85756   -6111.5387   -4897.1356   -4986.6642   -299.36175 
   12300    300.56885   -6144.1416    -4934.923   -4525.0365    1370.5609 
   12350     298.5524   -6092.1569   -4891.0508    -4436.591    1519.6028 
   12400    312.16884   -6089.3954   -4833.5089   -4969.3149   -454.10236 
   12450    310.74441    -6027.491   -4777.3351   -4278.4575    1668.1254 
   12500    311.14657   -6050.5054   -4798.7317   -4574.9381    748.31113 
   12550     297.6965   -6069.2457   -4871.5829   -4873.4804   -6.3447495 
   12600    303.78233    -6117.958   -4895.8114     -4691.65    682.66583 
   12650    308.06529   -6086.6989   -4847.3215   -4826.1251    70.875289 
   12700     312.3611   -6025.3455   -4768.6855   -4373.0333    1322.9649 
   12750    320.98757   -5999.1149   -4707.7498   -4321.3995    1291.8613 
   12800    314.27003   -5972.8141   -4708.4743   -4466.2367     809.9838 
   12850    317.68875   -6021.8606    -4743.767   -4656.6487    291.30244 
   12900    296.27702   -5971.6677   -4779.7156   -4242.5702    1796.0835 
   12950    297.40884   -5964.1539   -4767.6484    -4291.323    1592.7161 
   13000    316.46693   -5984.9711    -4711.793   -4359.4229    1178.2399 
   13050    304.93463   -5914.4479   -4687.6654   -4410.9905    925.13345 
   13100    319.53207   -6004.6884   -4719.1789   -4847.4837   -429.01987 
   13150    304.31111   -6028.9746   -4804.7006   -4692.0701    376.60923 
   13200    297.06099   -6068.4724   -4873.3663    -4853.444     66.61533 
   13250    298.71295    -6094.407   -4892.6549   -5018.5954   -421.11435 
   13300    306.47047   -6088.9917   -4856.0304   -4982.9801    -424.4887 
   13350    319.05208    -6093.055   -4809.4765   -5120.6099   -1040.3544 
   13400    307.35914   -6036.2165     -4799.68   -4722.1741    259.16088 
   13450    310.94212   -6043.3926   -4792.4414   -4765.5268    89.996098 
   13500    304.97779   -5994.0635   -4767.1074    -4318.206    1501.0169 
   13550    306.29663   -5984.4641   -4752.2021   -4612.7716    466.22164 
   13600    297.59762   -5917.1647   -4719.8997   -4345.5002    1251.9008 
   13650    313.33816   -5913.0905   -4652.4997    -4301.675    1173.0726 
   13700    310.54708   -5877.3114   -4627.9495   -4084.9715    1815.5862 
   13750    306.12806   -5874.8125   -4643.2287   -4010.5407    2115.5549 
   13800    310.79454   -5905.0338   -4654.6763   -4345.1833    1034.8694 
   13850    305.54295   -5899.0708    -4669.841   -4318.4041    1175.1193 
   13900    299.37824   -5902.6247   -4698.1962   -3918.7258    2606.3593 
   13950    300.81395   -5934.5345     -4724.33   -3958.2334    2561.6405 
   14000    300.31022   -5942.5078   -4734.3298   -4319.7929    1386.1105 
   14050    290.94227   -5878.7598   -4708.2699   -4108.6117    2005.1112 
   14100    306.62785   -5884.6351   -4651.0407   -4239.0752    1377.5123 
   14150    312.08806   -5810.2765    -4554.715   -3716.0622     2804.251 
   14200    321.87242   -5802.0718   -4507.1469   -3688.7795    2736.4214 
   14250    322.44804    -5869.297   -4572.0563   -3911.9827    2207.1255 
   14300     303.0741   -5930.7692   -4711.4718   -4288.1014    1415.6476 
   14350    299.54157   -6041.2194   -4836.1337   -4732.2759    347.27507 
   14400    300.11854   -6111.8613   -4904.4544   -5169.9309   -887.68872 
   14450    303.33655   -6123.5206   -4903.1673   -5083.7724   -603.89963 
   14500    306.60464   -6108.6941   -4875.1929   -4952.6086   -258.85899 
   14550    305.47683   -6077.9028   -4848.9389   -4974.1771   -418.76578 
   14600    305.74035   -6010.5128   -4780.4888   -4360.9024    1402.9947 
   14650    310.54106   -5946.6178   -4697.2801    -4062.454    2122.7038 
   14700    315.42169   -5921.7537   -4652.7807   -4022.9144    2106.1199 
   14750    300.73413   -5862.9518   -4653.0683   -3851.2869    2680.9622 
   14800    292.42306   -5840.0474   -4663.6002   -3807.5164    2862.5357 
   14850    304.62536   -5892.6639   -4667.1256   -4154.1511    1715.2618 
   14900     310.0552   -5918.6313   -4671.2483   -4018.5627    2182.4218 
   14950    301.82859   -5928.8059   -4714.5193   -4349.0708    1221.9709 
   15000    286.89768   -5877.3565   -4723.1384   -4093.3481    2105.8656 
   15050    298.76018   -5855.3608   -4653.4188   -3798.5258    2858.5541 
   15100    326.15548    -5888.366   -4576.2098   -3831.6821    2489.5198 
   15150    313.11124   -5847.5364   -4587.8586   -3741.2024    2831.0122 
   15200       303.29   -5909.2586   -4689.0926   -4219.6148    1569.8195 
   15250      305.784   -6002.7697   -4772.5701   -4340.3261    1445.3188 
   15300    299.06197   -6053.6421   -4850.4859   -4673.9838       590.18 
   15350    298.65263   -6100.4869   -4898.9775   -5001.3438    -342.2879 
   15400    301.17335     -6127.44   -4915.7895   -4680.3925    787.11021 
   15450    302.42433   -6132.7291   -4916.0458    -4919.605   -11.901088 
   15500    300.73939   -6104.7029   -4894.7983    -4807.109    293.21167 
   15550    307.84679   -6091.0771   -4852.5787   -4677.9257    583.99692 
   15600    305.58993   -6036.3306   -4806.9117   -4530.7055     923.5662 
   15650    304.42933   -5981.2694   -4756.5198   -4519.9663    790.97719 
   15700    310.98867   -5980.4368   -4729.2983   -4208.9795    1739.8195 
   15750    303.83091   -5997.1303   -4774.7881   -4712.9563    206.75063 
   15800    293.37062   -6013.7292   -4833.4698   -4748.7148    283.40027 
   15850    303.32139   -6042.8175   -4822.5252   -4511.6601    1039.4575 
   15900    313.13957   -6018.4023   -4758.6105   -4578.4792    602.31521 
   15950    311.35596   -5957.1852    -4704.569    -4426.665     929.2435 
   16000    306.48627    -5909.729   -4676.7041   -4227.2162    1502.9779 
   16050    304.57903   -5899.1491   -4673.7973   -4047.2844    2094.9066 
   16100    298.83194   -5926.7745   -4724.5438   -4335.8738    1299.6177 
   16150    307.31018   -6027.9362   -4791.5966   -4564.3842    759.74305 
   16200    302.06037   -6046.1979   -4830.9788   -4811.8421     63.98853 
   16250     309.9403   -6093.4556   -4846.5348   -5037.3918   -638.17945 
   16300    303.18886   -6059.5077   -4839.7486   -5020.5734     -604.634 
   16350    298.13592   -5980.4821   -4781.0515   -4652.6796    429.24428 
   16400    300.02154   -5886.9121   -4679.8955   -4044.2167    2125.5551 
   16450    303.94502   -5830.7649   -4607.9637   -3585.1058    3420.1879 
   16500    314.94025   -5858.8542   -4591.8181   -3805.9241    2627.8381 
   16550    307.31358   -5879.2284   -4642.8751   -3892.9651    2507.5165 
   16600    306.57995   -5952.0435   -4718.6417   -4264.7794    1517.6052 
   16650    304.40332   -6007.4695   -4782.8246   -4556.5435    756.62892 
   16700    303.57178   -6029.5479   -4808.2483   -4613.9743    649.60477 
   16750    308.10444   -6057.6555   -4818.1205   -4710.8984    358.52479 
   16800    314.96596   -6086.2868   -4819.1472   -4821.1416   -6.6687847 
   16850    310.63709   -6095.0945   -4845.3704   -5098.9329   -847.85136 
   16900     299.5141   -6075.4907   -4870.5156   -5098.1705    -761.2228 
   16950    301.81646   -6099.9909   -4885.7531   -5009.4772   -413.70331 
   17000     305.4795   -6123.7028   -4894.7283   -5375.3203   -1606.9829 
   17050    303.63154   -6148.9959   -4927.4559    -5018.732   -305.20514 
   17100     304.7596   -6171.9307   -4945.8524   -4533.1609      1379.94 
   17150    303.95371    -6139.154   -4916.3178   -4764.7689    506.74285 
   17200    303.38359   -6090.6848   -4870.1423   -5027.7894   -527.13361 
   17250    293.49446   -5995.7687   -4815.0111    -4572.857    809.70456 
   17300    309.14334   -6004.4295    -4760.715   -4290.7009    1571.6126 
   17350    309.35619    -5978.366   -4733.7951   -4424.8225    1033.1291 
   17400    303.09527   -5946.1804   -4726.7979   -4127.7364    2003.1159 
   17450    301.48885   -5922.0367    -4709.117   -4083.9671     2090.349 
   17500     295.1326   -5878.3607   -4691.0128   -3897.7537    2652.4652 
   17550    315.01291    -5943.542   -4676.2136   -4099.0075    1930.0367 
   17600    308.35259   -5904.9392   -4664.4059   -3727.8349    3131.6655 
   17650    317.17261   -5937.1847   -4661.1676   -4291.5225    1236.0035 
   17700    305.40089   -5916.6952   -4688.0369   -4256.2234    1443.8794 
   17750    302.62749   -5895.9858   -4678.4852     -3843.25    2792.8232 
   17800    308.66583   -5889.7925    -4647.999   -4079.0252    1902.5099 
   17850    303.05179   -5849.0108   -4629.8032   -3828.6031    2679.0183 
   17900     302.9841   -5854.9178   -4635.9825   -4068.0584    1899.0001 
   17950    304.89142   -5869.1516   -4642.5429   -3799.6986    2818.2664 
   18000    295.61028   -5820.6609   -4631.3912   -4089.5284    1811.8574 
   18050    305.77731   -5870.1024   -4639.9297   -4108.1649    1778.0921 
   18100    310.15444   -5920.1199   -4672.3376   -4095.0288    1930.3801 
   18150    310.55669   -6002.4854   -4753.0848   -4137.4843    2058.4184 
   18200    296.95293   -6054.0526   -4859.3813   -5070.7745   -706.84729 
   18250    291.33239   -6087.1184    -4915.059   -4894.4837     68.79903 
   18300    304.62968   -6126.8228   -4901.2672   -5003.5831   -342.11935 
   18350    306.72161    -6112.797   -4878.8253   -4859.1705    65.720871 
   18400    315.78143   -6151.7465   -4881.3262   -4938.1893   -190.13606 
   18450    300.14912   -6119.9339   -4912.4039   -5119.3841    -692.0913 
   18500    305.14131   -6151.9582   -4924.3442    -5217.656   -980.76345 
   18550    302.18046   -6150.3553   -4934.6531   -4940.1219   -18.286388 
   18600    299.09834   -6117.5908   -4914.2883   -5110.1264   -654.83497 
   18650    307.43649   -6064.4987   -4827.6509   -5068.7501   -806.17699 
   18700      315.914   -6066.7981   -4795.8445   -4663.1774    443.60654 
   18750    300.84508   -6050.8135   -4840.4837   -4530.0436     1038.036 
   18800    291.88803   -6024.4228   -4850.1281   -4531.3889     1065.786 
   18850    307.96321   -6025.5839   -4786.6171   -4647.3214    465.77099 
   18900    314.22615    -5989.607   -4725.4437   -4356.9274    1232.2289 
   18950    309.94093   -5962.1598   -4715.2365   -4553.9852    539.18513 
   19000    298.82074   -5941.6057     -4739.42    -4338.868    1339.3485 
   19050    298.73511   -5937.8259   -4735.9847   -4426.2614    1035.6392 
   19100    310.23067   -5967.0804   -4718.9914   -4391.6448    1094.5672 
   19150    313.94058   -5993.9755   -4730.9611   -4777.4724   -155.52251 
   19200    298.61371   -5943.4719   -4742.1191   -4167.8334    1920.2717 
   19250    304.54935   -5976.8685    -4751.636   -4351.2496    1338.7947 
   19300    303.77053   -6020.3695   -4798.2703   -4402.3452    1323.8772 
   19350      303.449   -6061.0988   -4840.2932   -4999.8145   -533.40047 
   19400     306.0428   -6092.0906   -4860.8498   -4881.4004   -68.715989 
   19450    301.84048   -6090.5995   -4876.2651   -5156.2278   -936.12719 
   19500    299.86845   -6065.0948    -4858.694   -4741.1729    392.96226 
   19550    302.96713   -6073.9486   -4855.0815   -4559.5208    988.28319 
   19600    301.61021   -6065.7304   -4852.3224   -4708.8716    479.66475 
   19650    319.81588   -6100.3143   -4813.6631   -4731.5395     274.6013 
   19700    308.37449   -6048.4571   -4807.8357   -4398.7041    1368.0362 
   19750    301.02094    -6029.068   -4818.0307   -4576.5989    807.28899 
   19800    303.64324   -6006.8902   -4785.3031   -4276.3481    1701.8216 
   19850    307.83687   -5968.4218   -4729.9633   -4393.5791    1124.7867 
   19900    308.12016   -5939.2597   -4699.6616   -4272.8103    1427.2868 
   19950    317.47064   -5975.0964   -4697.8802   -4428.1326    901.97052 
   20000    315.00871   -6046.7282   -4779.4167   -4537.1747    809.99824 
   20050    297.24884   -6071.4582   -4875.5964    -4996.866   -405.49597 
   20100    306.36851   -6153.0835   -4920.5324   -4995.6435   -251.15316 
   20150    296.02921   -6146.5742    -4955.619    -4838.251    392.45025 
   20200    298.12501   -6146.2362   -4946.8495   -5011.4674   -216.06655 
   20250    307.89907   -6128.3508   -4889.6421   -4806.7591    277.14053 
   20300    311.63468    -6112.706   -4858.9685   -5069.5861   -704.25403 
   20350    304.68396   -6127.1702   -4901.3962   -4915.3112   -46.528482 
   20400    301.77254   -6176.6692   -4962.6081    -5060.557   -327.51747 
   20450    295.43791   -6174.1231   -4985.5469   -5225.2692   -801.57302 
   20500    300.86708   -6151.9043    -4941.486   -4910.5668    103.38607 
   20550    308.35123   -6129.7578     -4889.23    -5128.036   -798.50924 
   20600    304.38334   -6085.9749   -4861.4103   -5115.9265   -851.04022 
   20650    301.89795   -6072.7057   -4858.1401   -4811.9699    154.38194 
   20700     304.6435   -6111.0646   -4885.4533   -4923.4873   -127.17632 
   20750    298.66667   -6131.8762   -4930.3103   -4904.3549    86.788656 
   20800      297.512   -6147.2236   -4950.3031   -5302.9825   -1179.2742 
   20850    315.06264   -6183.2632   -4915.7347   -4976.6995   -203.85163 
   20900    314.81857   -6158.3254   -4891.7788   -5143.5585   -841.88997 
   20950     289.4243   -6054.7814   -4890.3985   -4722.4549    561.56261 
   21000    308.18933   -6066.3694   -4826.4929   -4371.2697    1522.1557 
   21050     307.6253   -5989.3382   -4751.7309   -4163.5797    1966.6346 
   21100    307.11132   -5962.2162   -4726.6766   -3998.5962    2434.5237 
   21150     307.0691   -5979.7887    -4744.419   -4643.3789    337.85339 
   21200    295.34959   -5966.7888   -4778.5679    -4319.985    1533.3897 
   21250     297.2566   -6004.0348   -4808.1418   -4497.8844    1037.4251 
   21300    298.96933   -5991.5436   -4788.7601   -4448.3462    1138.2613 
   21350    308.12155   -5992.5874   -4752.9836   -4621.7113    438.94249 
   21400    297.38041    -5888.188   -4691.7969    -4132.696    1869.4972 
   21450    312.79296   -5869.1859   -4610.7886   -3991.6272     2070.325 
   21500    313.54158   -5814.0078   -4552.5987    -4028.042    1753.9898 
   21550    311.45065   -5835.5667   -4582.5696   -3863.1514    2405.5593 
   21600    302.63789   -5895.1478   -4677.6054   -4059.0719    2068.2253 
   21650    306.82721   -5997.7563   -4763.3598   -4630.6297    443.81724 
   21700    300.24743   -5975.5693   -4767.6439    -4390.802    1260.0675 
   21750    310.00738   -5995.4547    -4748.264   -4249.3819    1668.1405 
   21800    296.94853   -5949.3455   -4754.6919   -4238.9939    1724.3687 
   21850    312.24627   -5994.2325   -4738.0346   -4833.5453   -319.36477 
   21900    305.11229   -5937.9675   -4710.4703   -4291.5834    1400.6559 
   21950    301.96328   -5854.2282   -4639.3997   -4026.9237    2047.9706 
   22000    310.02587   -5833.2214   -4585.9564   -3952.1512    2119.2904 
   22050     317.1806   -5858.1849   -4582.1356    -3737.861    2823.0489 
   22100    312.55078     -5880.97   -4623.5469   -4024.1173     2004.347 
   22150    305.66977   -5889.6612   -4659.9211   -4392.8001    893.18757 
   22200    305.41718   -5914.8307   -4686.1068   -4236.4789    1503.4464 
   22250    298.21385   -5917.2699   -4717.5258   -4104.2919    2050.5049 
   22300    312.15499   -6002.2317    -4746.401   -4779.0488   -109.16645 
   22350    303.48745   -6014.8673   -4793.9069   -4977.2206   -612.95647 
   22400     311.1549   -6087.1862   -4835.3789   -5019.8108   -616.69514 
   22450    301.29342    -6078.805   -4866.6715   -5098.1073     -773.865 
   22500    311.27121    -6113.272   -4860.9968    -4911.744   -169.68617 
   22550    316.70239   -6162.4477   -4888.3224   -5220.2134   -1109.7627 
   22600    294.52142   -6129.0486   -4944.1595   -4975.1455   -103.60972 
   22650    296.46072   -6113.2657   -4920.5746   -5156.3332   -788.31951 
   22700    307.22849    -6051.786   -4815.7751   -4884.6518   -230.30704 
   22750    317.77244   -5997.6345   -4719.2042   -4265.9034    1515.7277 
   22800    296.76676   -5914.3669   -4720.4446   -3958.8388    2546.6243 
   22850    319.82887   -6048.6192   -4761.9157   -4887.4817    -419.8619 
   22900    303.28913   -6066.8271   -4846.6646   -4903.4965   -190.03185 
   22950    294.92704   -6094.7872   -4908.2663   -4995.1714    -290.5894 
   23000    299.77276   -6102.7669   -4896.7511   -4869.3762    91.534973 
   23050    310.71308   -6119.6355   -4869.6058   -5063.9195   -649.73784 
   23100    300.91845   -6064.6016   -4853.9766   -4624.0518    768.81244 
   23150    303.00298   -6026.4259   -4807.4147   -4664.6532    477.35944 
   23200    300.18205   -5985.4912   -4777.8288   -4490.5594     960.5589 
   23250    297.14071   -5919.2255   -4723.7987    -4013.601    2374.7283 
   23300    313.14175   -5900.8593   -4641.0588   -4067.5979    1917.5137 
   23350    313.37225    -5874.904   -4614.1761   -3811.0086    2685.5966 
   23400    311.53824   -5923.3749   -4670.0255   -4058.2836    2045.5157 
   23450    291.00947   -5915.4589   -4744.6987   -4147.1258    1998.1382 
   23500    298.40245   -5994.8342   -4794.3313   -4568.3089      755.764 
   23550    298.30658   -5983.3801   -4783.2629    -4316.403    1561.0659 
   23600    305.68763    -5957.347   -4727.5351   -4173.2972    1853.2369 
   23650    304.30033   -5871.3222   -4647.0916   -3752.7895    2990.3284 
   23700    303.74483   -5807.6435   -4585.6477   -3670.9076    3058.6683 
   23750    296.42881   -5775.0873   -4582.5245   -3730.0318    2850.5283 
   23800    305.80725   -5864.0405   -4633.7474   -4258.3658    1255.1847 
   23850    311.25867    -5942.239   -4690.0143   -4400.5049    968.04897 
   23900    299.90845   -5925.8275   -4719.2659   -4059.3694     2206.533 
   23950    308.69839   -5988.1227   -4746.1983   -4513.0214    779.68657 
   24000    303.97117   -6031.7982   -4808.8918   -4688.2937    403.25057 
   24050    301.12913   -6071.3435   -4859.8709   -4583.5148    924.06758 
   24100    295.21715   -6062.9255   -4875.2374    -4996.884   -406.75677 
   24150     298.6724   -6059.2607   -4857.6718   -4773.6488    280.95224 
   24200     310.5419   -6097.4512   -4848.1101   -5017.6876    -567.0258 
   24250    295.44026   -6055.7261   -4867.1404    -4745.301    407.40133 
   24300      316.816   -6136.6666   -4862.0841   -5420.3772   -1866.7961 
   24350    303.16239    -6087.192   -4867.5395   -4799.6268    227.08347 
   24400     300.4956     -6056.23   -4847.3062   -4602.5337     818.4596 
   24450    303.69287   -6020.7163   -4798.9295    -4750.526    161.84949 
   24500     311.7332   -6024.3899   -4770.2561   -4417.9694    1177.9611 
   24550    305.48275   -5978.6196    -4749.632   -4111.4717    2133.8526 
   24600    301.00744   -5953.9095   -4742.9264   -4033.7382    2371.3529 
   24650    303.40967   -5962.8242   -4742.1768   -4408.6339    1115.2864 
   24700    307.64439   -5952.8733   -4715.1891    -4087.622    2098.4318 
   24750    297.77276   -5866.7107   -4668.7411   -3952.5247    2394.8533 
   24800    310.84982   -5899.9676   -4649.3877   -4085.8322    1884.3921 
   24850    301.05343   -5865.3711    -4654.203   -3967.0881     2297.545 
   24900    296.44678   -5849.3708   -4656.7357   -4048.3447    2034.3115 
   24950    308.74792   -5882.1481   -4640.0243   -3995.1673     2156.245 
   25000      317.208   -5916.8049   -4640.6454   -3785.5644    2859.1828 
   25050    301.92329   -5901.0066    -4686.339   -4006.5552    2273.0317 
   25100    294.47921   -5927.5062   -4742.7869   -4249.2911    1650.1299 
   25150    287.46924   -5890.4116   -4733.8941   -3965.5938    2569.0093 
   25200    310.06339   -5899.5259   -4652.1099   -3946.6101    2359.0196 
   25250    315.50531   -5909.9958   -4640.6864   -4220.0797    1406.4067 
   25300    296.61918   -5876.7048   -4683.3762   -4137.6751    1824.6918 
   25350    298.43437   -5873.4655   -4672.8342   -3908.7121    2555.0385 
   25400    301.31039   -5838.8635   -4626.6617   -3495.1719    3783.4267 
   25450    306.77156   -5825.4519   -4591.2793   -3853.8942    2465.6364 
   25500    309.10649   -5833.0872    -4589.521    -4067.997    1743.8493 
   25550    313.24967   -5886.6489   -4626.4142   -3851.3837    2591.5133 
   25600    319.12774    -5961.766   -4677.8833   -4321.4682    1191.7652 
   25650    301.66236   -5955.7756   -4742.1578   -4390.5035    1175.8463 
   25700    301.70578   -6017.9344   -4804.1419   -4400.4507     1349.845 
   25750    298.07809   -6050.7785   -4851.5805   -4492.9291    1199.2432 
   25800    316.25163   -6167.0196   -4894.7077   -5475.4164   -1941.7487 
   25850    298.84188   -6179.1411   -4976.8704    -5344.269   -1228.4917 
   25900    292.07769   -6187.2814   -5012.2236   -5358.3739   -1157.4423 
   25950    299.47185   -6159.7496   -4954.9444   -5318.0715   -1214.2085 
   26000    318.09568   -6153.1689   -4873.4382   -4911.8975   -128.59878 
   26050    309.94142   -6139.3452   -4892.4199   -5289.0813   -1326.3393 
   26100    290.64815   -6122.4899   -4953.1834   -5221.1264   -895.93621 
   26150    301.02773   -6190.2493   -4979.1847   -5184.5272   -686.61543 
   26200    296.23406   -6175.9331   -4984.1538   -4965.7835    61.426085 
   26250    308.81539   -6196.0747   -4953.6795   -5198.0097    -816.9808 
   26300    303.53631   -6141.3368   -4920.1799   -5338.5745   -1399.0096 
   26350    309.88913   -6123.6767   -4876.9618   -5044.5277   -560.29984 
   26400    307.16116   -6085.2141    -4849.474   -4931.2833   -273.55032 
   26450    309.40615   -6089.2978   -4844.5259    -4664.302     602.6249 
   26500    313.85101   -6160.7794   -4898.1254   -5309.7413   -1376.3432 
   26550    308.59296   -6207.7085   -4966.2082   -4615.5674    1172.4573 
   26600    296.36229   -6201.5799   -5009.2847    -5167.358   -528.55836 
   26650    301.07677   -6199.6222   -4988.3603   -4972.2101    54.002263 
   26700    310.06945   -6163.2292   -4915.7889   -5004.4568   -296.48411 
   26750    314.82189   -6131.1728   -4864.6129   -4909.1813   -149.02576 
   26800    310.29447   -6123.6585   -4875.3128   -4906.4994    -104.2803 
   26850    312.87255   -6203.5247   -4944.8072   -5286.3306   -1141.9711 
   26900     296.7017   -6212.7313   -5019.0707   -5011.5147    25.265545 
   26950    298.26441   -6211.7311   -5011.7836   -5002.0141    32.666679 
   27000    311.76907    -6210.781   -4956.5029   -4893.6315    210.22665 
   27050    304.81652   -6152.7193   -4926.4119   -5059.4673   -444.90466 
   27100    314.46533   -6184.7954     -4919.67   -5132.4118   -711.35697 
   27150    299.51763   -6127.4157   -4922.4263   -4876.8967    152.24017 
   27200    304.14505   -6137.3652   -4913.7592   -4777.9325    454.17154 
   27250    315.85531   -6192.7472   -4922.0297   -5035.8607   -380.62314 
   27300    310.63396   -6188.8303   -4939.1188   -5010.0716   -237.24884 
   27350    298.23966   -6154.1415   -4954.2935   -4952.7635    5.1161742 
   27400    305.75178   -6197.8452   -4967.7752   -5157.5051   -634.41047 
   27450    301.61281   -6200.8053   -4987.3868   -5279.7833   -977.70279 
   27500    293.65786   -6149.0699    -4967.655   -5052.5981   -284.02916 
   27550     302.3456   -6158.7611   -4942.3945   -5045.5934   -345.07191 
   27600    309.86739   -6160.4618   -4913.8344   -5083.8217   -568.39636 
   27650     296.5399   -6096.9222   -4903.9125    -4648.892    852.72624 
   27700    305.61619   -6107.7666   -4878.2421   -4600.8315     927.5938 
   27750    309.67748   -6091.7574   -4845.8939   -4677.6302    562.63281 
   27800    301.79098   -6025.3018   -4811.1665   -4534.1758    926.18936 
   27850    313.90375   -6051.3095   -4788.4433   -4396.4934    1310.5853 
   27900    298.92708   -5994.8082   -4792.1946   -4768.3584    79.702411 
   27950    302.59515   -5966.8746   -4749.5041   -4453.9445    988.27949 
   28000    299.53538   -5874.5662   -4669.5054   -4315.2307    1184.6082 
   28050    324.85582   -5905.4616   -4598.5341   -3938.2869     2207.706 
   28100    305.38341   -5830.2258   -4601.6378   -3891.9883    2372.8954 
   28150    295.88485   -5812.1919   -4621.8175   -3907.0465    2390.0204 
   28200    309.88566   -5873.6226   -4626.9216   -4239.6102    1295.0751 
   28250    302.06715   -5852.7551   -4637.5088   -4197.8918    1469.9722 
   28300    313.33099   -5940.8764   -4680.3145   -4172.6493    1697.5091 
   28350    307.29653   -5982.3322   -4746.0476    -4276.595    1569.7352 
   28400    299.36523   -6000.4449   -4796.0687   -4815.6283   -65.402777 
   28450    295.61992    -5965.202   -4775.8936   -4235.5003    1806.9436 
   28500    310.01195   -5974.2462   -4727.0372   -4420.9601    1023.4473 
   28550    315.52043   -5996.4285   -4727.0583   -4724.3031    9.2128234 
   28600    305.26578   -6020.5355   -4792.4208   -4853.6018   -204.57438 
   28650    290.27362   -6025.4807   -4857.6809   -4733.7738    414.31507 
   28700     291.3938   -6033.7963   -4861.4899   -4754.5294    357.64975 
   28750    309.33361   -6068.8689   -4824.3889   -4547.4157    926.13067 
   28800    309.60592   -6030.5628   -4784.9872   -4438.1288    1159.8102 
   28850    309.67255    -6040.085   -4794.2414   -4544.6781    834.47894 
   28900    291.95911   -5989.4906     -4814.91   -4387.6714     1428.582 
   28950    310.88329   -6065.9505    -4815.236   -4740.3736    250.32143 
   29000    308.81931   -6088.8447   -4846.4337   -4798.9703    158.70607 
   29050    300.58351   -6064.9991   -4855.7216   -4925.6458   -233.80982 
   29100    309.95595   -6086.7442   -4839.7604   -5153.8831   -1050.3498 
   29150    296.98571   -6004.5426   -4809.7393    -4749.427    201.66974 
   29200    300.47101   -5956.4003   -4747.5754   -4400.7481    1159.7059 
   29250    309.28701   -5924.9019   -4680.6093   -4220.3522    1538.9876 
   29300    307.96098   -5866.4677   -4627.5099   -4196.8518    1440.0161 
   29350    308.42937   -5833.6105   -4592.7683   -4034.1948    1867.7339 
   29400    303.34367   -5793.4762   -4573.0943   -3608.4729    3225.4593 
   29450    303.50816    -5812.124   -4591.0804   -3949.6855    2144.6683 
   29500    304.25274   -5855.3072    -4631.268   -4478.6533    510.30646 
   29550    300.76587    -5905.473   -4695.4618   -4147.7043    1831.5679 
   29600    301.89561   -5969.0842    -4754.528   -4400.7794    1182.8493 
   29650    298.76023    -5996.745   -4794.8027   -4392.5562    1345.0144 
   29700    293.60914   -5985.5588   -4804.3399   -4291.4507    1714.9767 
   29750    296.24444   -5942.3814   -4750.5604   -4336.1253    1385.7704 
   29800    310.09935   -5916.8521   -4669.2914   -3916.8789    2515.8843 
   29850    321.29016   -5964.9468   -4672.3644   -3949.2648    2417.8689 
   29900    303.30486   -5976.5724   -4756.3466   -4203.9079    1847.2207 
   29950    297.91017   -6060.5341   -4862.0117   -4777.9063     281.2277 
   30000    285.11334   -6084.7008   -4937.6613    -4819.042    396.63413 
   30050    297.17265   -6124.8533    -4929.298    -5030.924   -339.81282 
   30100    302.86341   -6087.5899   -4869.1401   -4802.4233     223.0848 
   30150    302.83347   -6033.5661   -4815.2368   -4419.3419    1323.7763 
   30200    313.58785   -6071.1877   -4809.5925   -4886.1602   -256.02373 
   30250    306.43373   -6096.3944   -4863.5809   -4958.2772   -316.64141 
   30300    293.17856   -6140.7994   -4961.3128    -5300.523   -1134.2363 
   30350    295.27898   -6222.8873   -5034.9505   -5088.7104   -179.76008 
   30400     293.7391    -6218.083   -5036.3412   -5382.8898    -1158.774 
   30450    311.57249    -6214.894   -4961.4068   -5456.8461   -1656.6284 
   30500    312.28955   -6139.6966   -4883.3245   -4973.9407   -302.99842 
   30550    316.97555   -6134.0484   -4858.8241   -4763.4718    318.83469 
   30600    304.41153   -6128.9674   -4904.2894   -4867.4313    123.24444 
   30650    304.15186   -6203.1455   -4979.5121     -5613.39   -2119.5333 
   30700    300.13665   -6218.0155   -5010.5358   -5425.0869   -1386.1583 
   30750    304.47625   -6213.2395   -4988.3011   -5391.6843   -1348.8153 
   30800    306.70212   -6189.2505   -4955.3572   -5318.1127   -1212.9663 
   30850    298.91116   -6117.0516   -4914.5022    -5123.973   -700.41968 
   30900    317.68904   -6137.1296   -4859.0348   -5016.5531   -526.70276 
   30950    302.37475   -6089.7488    -4873.265   -4879.4864   -20.802953 
   31000    312.48872   -6123.3464    -4866.173   -5087.2516   -739.23294 
   31050    308.57106   -6112.8672    -4871.455    -4952.199   -269.98843 
   31100    304.08438   -6153.8985   -4930.5366   -5286.3803   -1189.8547 
   31150    301.07424   -6215.8738    -5004.622   -5591.5585   -1962.5729 
   31200    298.61864   -6222.8623   -5021.4897   -5471.0514    -1503.225 
   31250     308.1929   -6230.0002   -4990.1093    -5204.473   -716.77993 
   31300    300.50321   -6182.7722   -4973.8177    -5174.143   -669.83909 
   31350    304.24428   -6173.8599   -4949.8548   -5115.8695   -555.11301 
   31400    302.09639   -6135.3565   -4919.9925   -4970.1279   -167.64068 
   31450    301.56826   -6088.3288   -4875.0895   -4713.8435    539.16744 
   31500    304.05215   -6058.9538   -4835.7216   -4018.5163    2732.5355 
   31550    301.61307   -6063.6833   -4850.2638   -4407.6533    1479.9817 
   31600    302.40158   -6064.9454   -4848.3536   -4262.1919     1959.982 
   31650    305.27656   -6033.4193   -4805.2612   -4357.9576    1495.6743 
   31700    313.06145    -6011.777   -4752.2995   -4664.8604     292.3752 
   31750    304.67006   -5953.8844   -4728.1663   -4347.0657    1274.3079 
   31800    300.64616   -5910.5949   -4701.0653   -4068.3271    2115.7225 
   31850     304.2349   -5903.1649   -4679.1975   -3771.2422    3035.9814 
   31900    303.46068    -5865.624   -4644.7714    -4072.601    1913.1985 
   31950      301.869   -5865.8049   -4651.3557   -3696.6566    3192.2815 
   32000    301.22012   -5880.8534   -4669.0147   -4135.9298    1782.5063 
   32050     316.2004   -5928.7005   -4656.5947   -4138.6325    1731.9395 
   32100    304.55432    -5891.009   -4665.7565    -4191.118    1587.0758 
   32150    297.17656   -5895.1775   -4699.6065   -4114.3287    1957.0264 
   32200    310.38878   -5938.0876   -4689.3625   -4338.7373    1172.4054 
   32250    310.78716   -5950.7062   -4700.3784   -4439.9741    870.72841 
   32300    304.50407   -5955.1905   -4730.1402   -4513.1214      725.658 
   32350    305.04201   -5976.5715    -4749.357    -4714.904    115.20256 
   32400    302.46502   -5978.9192   -4762.0722    -4629.147    444.46933 
   32450    306.26777   -5967.1005   -4734.9547   -4435.4067    1001.6155 
   32500    307.12197   -5913.7802   -4678.1978   -4209.0985    1568.5539 
   32550    298.10577   -5845.9244   -4646.6151   -3593.3618    3521.8226 
   32600    322.46207   -5950.1068   -4652.8097   -4595.3065    192.27655 
   32650     312.5966   -5997.1026   -4739.4952   -4510.2148    766.65773 
   32700    300.31554   -6044.9329   -4836.7335   -4826.4544    34.370839 
   32750    293.13513   -6045.7402   -4866.4283   -4642.0173    750.37581 
   32800    298.48472   -5991.7075   -4790.8736   -4790.1482     2.425634 
   32850    314.80907   -5980.1384   -4713.6301   -4470.7725    812.05657 
   32900    313.66711   -5988.8929   -4726.9788   -4407.4459      1068.44 
   32950    284.83379   -5931.9522   -4786.0374   -3863.1528    3085.9016 
   33000    304.18592   -6007.3753   -4783.6049   -4894.0595    -369.3331 
   33050    304.43492   -5986.5394   -4761.7673   -4152.0661    2038.6922 
   33100    311.17939   -6007.2214   -4755.3157   -4606.7061    496.91409 
   33150    305.04991   -6040.0911   -4812.8449   -4670.1559    477.11738 
   33200    305.21335   -6097.2683   -4869.3645   -4730.0713    465.76255 
   33250    306.23154   -6099.0155   -4867.0154   -4895.5414   -95.383975 
   33300    312.72001   -6102.8746   -4844.7707   -4746.2831    329.31886 
   33350    298.25909    -6041.293   -4841.3669   -4604.9712    790.44959 
   33400    297.99344   -6000.6449   -4801.7876   -4616.6312     619.1177 
   33450    294.10184   -5912.7121    -4729.511   -4217.5257    1711.9543 
   33500    314.29964   -5930.7997   -4666.3408   -4073.7946    1981.3303 
   33550    301.85671   -5826.5804   -4612.1807   -3484.4506     3770.855 
   33600    315.61166   -5855.8696   -4586.1324   -3938.8751    2164.2709 
   33650     306.6125   -5828.5389   -4595.0062   -3890.7753    2354.7769 
   33700    311.14082    -5907.083   -4655.3324   -3879.9331    2592.7466 
   33750    301.75643    -5924.189   -4710.1928    -4333.469    1259.6727 
   33800    297.50387   -5942.5015   -4745.6137   -4497.5409    829.49504 
   33850    306.53001   -5975.1988    -4741.998   -4377.8641     1217.575 
   33900    316.15632   -5999.8449   -4727.9165   -4487.7058    803.20604 
   33950    307.00413   -5985.1206   -4750.0123   -4376.0998    1250.2724 
   34000    302.15546   -5969.0054   -4753.4037   -4295.5963    1530.7968 
   34050    309.45593   -5981.0145   -4736.0423   -4284.5265     1509.759 
   34100    297.41921   -5918.8302    -4722.283   -3898.7118    2753.8216 
   34150    297.41461   -5871.4985   -4674.9698   -4030.2538    2155.7733 
   34200    301.73746   -5834.6833   -4620.7634   -4018.0512    2015.3229 
   34250    309.28419   -5827.5255   -4583.2442   -3851.5178    2446.7151 
   34300    312.72336   -5832.6746   -4574.5573    -3626.971    3168.4979 
   34350     311.9327   -5882.7826   -4627.8462   -4084.1988    1817.8243 
   34400    299.91012   -5922.8246   -4716.2562   -4250.0784    1558.7851 
   34450    314.76487   -6048.9618   -4782.6313   -4793.2826   -35.615645 
   34500    299.00956   -6064.1692   -4861.2238    -4963.645    -342.4715 
   34550    285.49721    -6056.726   -4908.1422   -4828.4142     266.5911 
   34600    320.48788   -6172.9408    -4883.586   -5341.1549   -1529.9991 
   34650    316.72574   -6131.8589   -4857.6396    -5096.788   -799.65417 
   34700    318.19099   -6164.4424   -4884.3283   -5203.0031    -1065.571 
   34750    303.96172   -6203.8102   -4980.9418    -5211.395   -770.57953 
   34800    297.34184   -6244.9549   -5048.7189   -4905.4732    478.97888 
   34850    303.54627   -6257.8798   -5036.6828   -4510.4201    1759.6943 
   34900    314.32938   -6245.8555    -4981.277   -5088.9943   -360.18029 
   34950    315.13164   -6198.7491    -4930.943   -5211.6459   -938.60236 
   35000    313.44137   -6161.9093   -4900.9034   -5001.4597   -336.23597 
   35050    308.09379   -6160.3008   -4920.8086   -5096.6115   -587.84194 
   35100    303.31669   -6174.2678   -4953.9945   -5125.4815   -573.41098 
   35150    291.49394   -6152.6868   -4979.9775   -5238.9157   -865.82609 
   35200    304.40061   -6182.4461    -4957.812   -5294.5641   -1126.0169 
   35250    302.43438   -6184.6409   -4967.9172   -5169.5256   -674.12955 
   35300    311.80244   -6250.2156   -4995.8032   -5045.3208   -165.57494 
   35350    295.14944   -6206.0445   -5018.6288    -5420.369   -1343.3214 
   35400    308.40987   -6249.5656   -5008.8018   -5184.4751   -587.40876 
   35450    311.07513   -6242.6597   -4991.1733   -5587.9755   -1995.5614 
   35500    305.60575   -6220.5451   -4991.0626   -5539.3168   -1833.2286 
   35550    310.69473   -6220.2621   -4970.3062   -5649.4618   -2270.9311 
   35600    296.19894   -6106.2574   -4914.6194   -5175.8412   -873.46217 
   35650    308.90805    -6075.673   -4832.9051   -4414.1228    1400.3062 
   35700     307.3086   -6040.3584   -4804.0252   -4720.5421    279.14717 
   35750    305.32145   -6023.1869   -4794.8482   -4206.3334    1967.8503 
   35800    299.31066   -5998.9104   -4794.7537   -4665.3071    432.83776 
   35850    307.14856   -6049.5318   -4813.8424   -4877.9966    -214.5161 
   35900    299.24706   -6051.8667   -4847.9659   -4774.2706    246.41928 
   35950    310.63573   -6146.2506   -4896.5321   -5101.3643   -684.90903 
   36000    296.33457   -6145.6622   -4953.4786   -5182.7394   -766.59241 
   36050    294.25663   -6119.0238   -4935.1999   -4879.9154     184.8581 
   36100    302.75814   -6056.3718   -4838.3455   -4796.6174    139.52877 
   36150    311.45354   -6000.4251   -4747.4163   -4423.1425    1084.2926 
   36200    305.12075   -5908.6351   -4681.1039   -3796.5557    2957.7137 
   36250    306.05293   -5884.9043   -4653.6228   -3947.7766     2360.178 
   36300     295.2198   -5848.5698    -4660.871   -4210.4796    1505.9993 
   36350    296.62882   -5814.1645   -4620.7971    -3706.185      3058.24 
   36400    307.65883    -5779.226   -4541.4838   -4026.2236    1722.9048 
   36450    319.57679     -5785.01   -4499.3206    -3795.602    2353.0639 
   36500    310.12863   -5774.1471   -4526.4686   -3865.7055    2209.4312 
   36550      302.043   -5828.7983   -4613.6491   -4115.6875    1665.0626 
   36600    281.97228   -5814.3229   -4679.9203   -4064.9956    2056.1584 
   36650    307.48668   -5940.1377   -4703.0881   -4038.9609    2220.6798 
   36700    300.70662   -5934.0567   -4724.2839   -3947.0166    2598.9926 
   36750    297.91478   -5911.1767   -4712.6358   -4220.9186    1644.1826 
   36800    307.50553   -5894.0663   -4656.9408   -4075.1739    1945.2869 
   36850    313.71824   -5871.1841   -4609.0642   -3984.9389    2086.9231 
   36900    309.14818   -5841.3099   -4597.5759   -3885.7037    2380.3273 
   36950    313.94486    -5903.394   -4640.3624   -4205.8928    1452.7606 
   37000    300.51166   -5924.4522   -4715.4637   -4237.9655     1596.638 
   37050    301.28752   -5978.7754   -4766.6656   -4444.0429    1078.7716 
   37100      303.431   -5988.1366   -4767.4034   -4534.4259    779.01987 
   37150    292.95282   -5914.5802   -4736.0017   -4287.1103    1500.9834 
   37200     304.1782   -5860.0897   -4636.3504   -4111.1642    1756.0949 
   37250    318.35785   -5810.6729   -4529.8875   -3599.2636    3111.7798 
   37300    318.79949   -5818.4688   -4535.9066   -3867.4287    2235.2272 
   37350    302.83694   -5837.7299   -4619.3866   -4244.5237    1253.4506 
   37400    301.75387   -5886.4761   -4672.4901   -4391.9664    938.00294 
   37450    299.50833   -5881.7741   -4676.8222   -4163.0142    1718.0489 
   37500    311.92124   -5931.4583    -4676.568   -4217.5951    1534.6938 
   37550    313.64311   -5985.8169   -4723.9993   -4469.3102    851.61862 
   37600    303.78869   -6032.0727   -4809.9004   -4545.8052     883.0703 
   37650    302.57284   -6098.3047   -4881.0239   -4932.2818   -171.39406 
   37700    299.85557   -6103.0113   -4896.6624   -5140.8639   -816.55037 
   37750    311.58218   -6098.5433   -4845.0171   -4880.2841   -117.92414 
   37800    320.69933   -6080.8502   -4790.6448   -4583.9829    691.02697 
   37850    315.76736   -6115.2657    -4844.902   -4836.0058     29.74677 
   37900    297.28515   -6126.7194   -4930.7115   -5301.5906   -1240.1294 
   37950    306.89906   -6196.2184   -4961.5328   -5179.0328   -727.26719 
   38000    300.63477   -6164.3821   -4954.8984   -5170.7905    -721.8908 
   38050    312.75745   -6174.0945     -4915.84   -5077.7123    -541.2616 
   38100    303.99161   -6129.4492   -4906.4605    -4971.342    -216.9479 
   38150    317.19205   -6172.9531   -4896.8578   -5252.9155   -1190.5703 
   38200    313.95252   -6213.1793    -4950.117   -4933.3728     55.98826 
   38250    297.71049    -6232.564   -5034.8449   -5866.3071   -2780.2074 
   38300    289.55631   -6222.5162   -5057.6022    -5531.151   -1583.4319 
   38350    290.97311    -6183.176   -5012.5621   -5135.9853   -412.69702 
   38400    305.97784   -6156.8172   -4925.8378   -4862.9651    210.23081 
   38450    323.51067   -6168.7246   -4867.2089   -5327.8971   -1540.4292 
   38500    313.59019   -6134.4292   -4872.8245   -4969.2714   -322.49487 
   38550    296.65482   -6067.2737   -4873.8017   -4547.6088    1090.7097 
   38600    296.77436   -6019.6916   -4825.7386   -4508.5382    1060.6411 
   38650    311.35474   -5975.9188   -4723.3076   -4371.5366    1176.2363 
   38700    308.84939   -5895.5684   -4653.0364   -4092.8192    1873.2298 
   38750    322.72312   -5984.8353   -4686.4879   -4588.0125    329.27782 
   38800    292.70362   -5965.5104   -4787.9345   -4562.7439     752.9823 
   38850    301.79855   -6062.3864   -4848.2206    -4807.355    136.64478 
   38900    296.07801   -6043.9648   -4852.8133   -4694.9246    527.94137 
   38950    299.76703   -6008.8231   -4802.8304   -4132.6969    2240.7632 
   39000    313.31022    -6010.039   -4749.5607   -4469.9164    935.06229 
   39050    313.11605   -6002.0763   -4742.3792   -4549.7449     644.1221 
   39100    305.43508   -5973.5486   -4744.7527   -4437.0725    1028.8078 
   39150    301.72947   -5933.9147   -4720.0269   -4051.0506    2236.8941 
   39200    313.93194   -5971.4586    -4708.479   -4401.7284    1025.6994 
   39250    300.83174   -5916.6544   -4706.3783   -4271.3398     1454.663 
   39300    306.83168   -5886.9589   -4652.5444   -3944.0542    2369.0187 
   39350    315.48055   -5884.9207   -4615.7109   -3862.5706     2518.318 
   39400    310.75092   -5907.3666   -4657.1846    -3872.449    2623.9649 
   39450    297.75633   -5910.9566   -4713.0532   -4202.0944    1708.5217 
   39500    308.89477   -5983.5242   -4740.8097   -4612.7582    428.17274 
   39550    310.80681   -6020.2671   -4769.8603   -4701.6318    228.13923 
   39600    312.64131   -6098.0922   -4840.3049   -5014.6043   -582.81484 
   39650    296.86488   -6124.4409   -4930.1238   -5179.7958   -834.84216 
   39700    295.74383   -6179.2776   -4989.4706   -5351.2816   -1209.8079 
   39750    310.00468   -6236.0219   -4988.8421   -5758.7209   -2574.2875 
   39800    299.04001   -6178.9413   -4975.8735   -5083.0357   -358.32431 
   39850    300.48026   -6182.3031    -4973.441   -5322.3903   -1166.8016 
   39900    303.53441    -6226.521   -5005.3717   -5642.9879   -2132.0334 
   39950    303.30747   -6235.1192   -5014.8829   -5603.9057   -1969.5491 
   40000    304.18808   -6242.5528   -5018.7737   -5726.0395   -2364.9246 
   40050    295.99363   -6210.3617   -5019.5497   -5356.6854   -1127.2997 
   40100    312.35809     -6250.93   -4994.2821   -5553.9216   -1871.2984 
   40150    306.82854   -6224.7757   -4990.3738   -5260.9428   -904.71694 
   40200    309.86151   -6260.8688   -5014.2649   -5509.5979   -1656.2728 
   40250    305.84579   -6274.9692    -5044.521   -4983.0608    205.50789 
   40300     298.2575   -6252.6584   -5052.7387   -5718.2376   -2225.2665 
   40350    297.63456   -6220.1265    -5022.713   -5472.0632   -1502.5179 
   40400    309.03945   -6170.7447   -4927.4481   -4972.4618   -150.51463 
   40450    315.65317   -6065.5509   -4795.6466   -4624.0309    573.84121 
   40500    319.87914   -6002.3268    -4715.421   -4261.4633    1517.9242 
   40550    301.75876   -5936.4599   -4722.4542   -4271.0778    1509.2928 
   40600    309.93644   -6008.0978   -4761.1925   -4573.6273    627.17247 
   40650     303.4605   -6036.7806   -4815.9287   -4797.2497    62.458117 
   40700    297.32679   -6065.1965   -4869.0211   -5162.6485   -981.81848 
   40750    301.72737   -6079.2712   -4865.3919   -4964.7847   -332.34554 
   40800    311.66173    -6113.878   -4860.0317   -4888.9345   -96.644095 
   40850    312.94614   -6149.3101   -4890.2965    -4960.747   -235.56943 
   40900    306.59697   -6175.1139   -4941.6436   -5347.6396   -1357.5516 
   40950    298.11465   -6178.4737   -4979.1287    -5318.295   -1134.0895 
   41000    296.92879    -6130.067   -4935.4928   -5364.3569   -1434.0174 
   41050    308.56589   -6086.5262   -4845.1347   -4610.2065    785.54281 
   41100    305.71494   -6032.8958   -4802.9741   -4444.6339    1198.2023 
   41150    309.26455   -6073.0603   -4828.8581   -4776.8154    174.01799 
   41200    299.93689   -6052.7804   -4846.1043   -4538.5563    1028.3657 
   41250    309.78242   -6085.9327   -4839.6471   -4447.8639    1310.0275 
   41300    295.46798   -6015.9501   -4827.2528   -4353.9005    1582.7751 
   41350    305.46777   -6000.6277   -4771.7003   -4439.5151    1110.7464 
   41400    304.27563   -5931.4539   -4707.3226   -3940.5577    2563.8755 
   41450     312.3878   -5957.1429   -4700.3756   -4160.9888    1803.5782 
   41500    297.37108   -5887.7937   -4691.4402   -3958.6525    2450.2638 
   41550    310.62831   -5895.4306   -4645.7419    -4066.328    1937.4192 
   41600    311.90143   -5845.9973   -4591.1867   -3592.8433    3338.2174 
   41650    301.37363   -5793.5721   -4581.1158   -3951.1878    2106.3259 
   41700     308.2622    -5816.837   -4576.6674    -4189.934    1293.1421 
   41750    314.39052    -5880.339   -4615.5146   -4002.5137    2049.7258 
   41800    310.74553   -5941.4325   -4691.2722   -4080.4102     2042.574 
   41850    289.06602   -5906.1716   -4743.2301   -4075.7284    2231.9632 
   41900    308.12542    -5975.899   -4736.2796   -4839.8009   -346.14976 
   41950    315.90693   -5997.7477   -4726.8226   -4376.0235    1172.9866 
   42000    308.67196   -6032.6492   -4790.8311   -4719.8301    237.41007 
   42050    298.54361   -6079.4167   -4878.3459   -4919.9445   -139.09556 
   42100     288.5215   -6073.0992   -4912.3484   -5078.7166   -556.29476 
   42150    315.47406   -6108.7402   -4839.5565   -4938.9194   -332.24538 
   42200    316.33159    -6029.549   -4756.9154   -4373.6556    1281.5276 
   42250     315.6289   -6000.4128   -4730.6061   -4359.5785     1240.626 
   42300    322.64006   -6042.9134   -4744.9002   -4652.0443    310.48772 
   42350    305.15977   -6038.1651   -4810.4769    -4362.169    1499.0322 
   42400    309.07328   -6113.6074   -4870.1747    -5178.502   -1030.9714 
   42450    305.68926   -6182.8341   -4953.0157   -4807.2739    487.32506 
   42500    298.89659   -6239.0084   -5036.5175   -5484.3278   -1497.3686 
   42550    295.92128   -6260.9871   -5070.4662   -5314.4882   -815.94992 
   42600     306.2315   -6260.8595   -5028.8596   -5459.4903   -1439.9246 
   42650     302.4426   -6198.1119   -4981.3551   -5347.0977   -1222.9545 
   42700    307.72536    -6161.704   -4923.6941   -4904.7938    63.197768 
   42750    306.60376   -6122.1466    -4888.649   -4801.9405    289.93241 
   42800    297.90957    -6083.357    -4884.837   -4946.0365   -204.63639 
   42850    309.79035   -6115.5322   -4869.2146   -5032.6073   -546.34535 
   42900    301.09113   -6086.5279   -4875.2081   -4992.6564   -392.71847 
   42950    313.05741   -6153.8858   -4894.4246   -5147.0084   -844.57886 
   43000    294.23491   -6116.9554   -4933.2189   -4836.2216    324.33547 
   43050    298.27791   -6159.8748    -4959.873    -5014.658   -183.18773 
   43100    296.95987   -6186.5522    -4991.853   -4919.1992    242.93648 
   43150    307.45918   -6246.8821   -5009.9431    -5615.789   -2025.8015 
   43200     303.0757   -6259.8745   -5040.5707   -5418.5558   -1263.8902 
   43250    291.10415   -6220.4719   -5049.3308   -5407.3778   -1197.2221 
   43300    311.28532   -6269.2946   -5016.9627   -5556.9062   -1805.4397 
   43350    300.54233   -6210.5176   -5001.4058    -5227.794   -756.98705 
   43400    299.80752   -6153.5366   -4947.3809   -5178.7034   -773.48593 
   43450    318.21246   -6143.1109   -4862.9104   -5051.4041   -630.27709 
   43500    307.03306   -6069.4902   -4834.2655   -4444.3942    1303.6346 
   43550    301.23478   -6065.0166   -4853.1189   -4505.8234    1161.2716 
   43600    307.90059    -6140.318   -4901.6032   -4879.6718     73.33312 
   43650    309.99661   -6214.0813    -4966.934   -5229.8927   -879.26984 
   43700    290.41364   -6199.8135   -5031.4504   -5102.8897   -238.87591 
   43750    304.76923    -6267.493   -5041.3759   -5608.8076   -1897.3536 
   43800    299.51325   -6208.5236   -5003.5519    -5216.569   -712.27745 
   43850    314.29942   -6187.7647   -4923.3067   -5085.8667    -543.5608 
   43900    305.05562   -6112.5718   -4885.3025   -4776.3298    364.37828 
   43950     313.6177   -6150.0731   -4888.3577   -4774.7709    379.80645 
   44000     305.4027   -6176.3553   -4947.6897   -4967.8567   -67.433538 
   44050    291.90223   -6194.1837   -5019.8318   -5068.5732   -162.97936 
   44100    281.83821   -6144.2993    -5010.436   -5398.8694   -1298.8267 
   44150    310.87917   -6147.6088   -4896.9109   -4836.3435    202.52259 
   44200    307.70159   -6045.6691   -4807.7549   -4318.5134    1635.9043 
   44250    307.58323   -6042.0055   -4804.5674   -4533.1931    907.40938 
   44300    303.86941   -6038.0633   -4815.5663   -4521.4169    983.56406 
   44350      297.192   -5994.3912   -4798.7581   -4406.1988    1312.6226 
   44400    303.80164   -5958.3907   -4736.1663   -4367.4925    1232.7555 
   44450    310.27421   -5897.2338   -4648.9697   -3954.6011    2321.7995 
   44500    319.81571   -5904.3015   -4617.6509   -3859.7809    2534.1328 
   44550    307.33128   -5885.5977   -4649.1732   -3953.8583     2324.964 
   44600    291.54645   -5864.5925    -4691.672   -4332.7618    1200.1085 
   44650    305.42089   -5898.6399   -4669.9012   -4302.2945    1229.1873 
   44700    302.07413   -5797.9641   -4582.6897   -3720.2057    2883.9367 
   44750    319.52786   -5853.1603   -4567.6677   -3755.8028    2714.6789 
   44800    299.36642    -5843.024    -4638.643   -3871.1402    2566.3426 
   44850    291.51352   -5862.6966   -4689.9086   -4277.4377    1379.2021 
   44900    306.20874   -5920.3885   -4688.4801   -4113.4744    1922.6789 
   44950    304.06322   -5929.4733   -4706.1965   -4169.0157    1796.2019 
   45000    305.81761   -5978.9298    -4748.595   -4566.9551    607.35982 
   45050    299.46207   -5953.0461   -4748.2803   -4687.1791    204.30747 
   45100    307.84484   -5926.5022   -4688.0117   -3911.2544    2597.2872 
   45150     306.3224   -5860.8854   -4628.5197   -4084.9695    1817.4997 
   45200    314.34008   -5852.8011   -4588.1796   -4022.2989    1892.1674 
   45250    294.18132   -5759.2826   -4575.7618   -3655.4188     3077.403 
   45300    307.49817   -5825.1574   -4588.0615   -3834.8388    2518.5936 
   45350    317.63654   -5884.9522   -4607.0687   -4039.7696      1896.91 
   45400    302.38596   -5901.8944   -4685.3654   -3990.5495    2323.2954 
   45450    294.76737   -5966.6065   -4780.7279   -4630.1164    503.60804 
   45500    302.12696   -6027.5329    -4812.046   -4838.9882   -90.088386 
   45550    295.32199   -5974.6059    -4786.496   -4642.6295    481.05458 
   45600    305.27734   -5937.4093    -4709.248   -4414.1645    986.68757 
   45650    297.64746   -5819.4082   -4621.9427   -3888.2125    2453.4152 
   45700    310.09441   -5848.5078    -4600.967   -3872.9309    2434.3755 
   45750    308.50608   -5895.6868    -4654.536   -4061.6079    1982.6074 
   45800    296.95509   -5921.6338   -4726.9538   -4103.7915    2083.7031 
   45850    302.94988   -6017.1258   -4798.3282   -4636.5905     540.8115 
   45900    295.35127   -6041.3888   -4853.1612   -4710.5026    477.01534 
   45950    308.33256   -6106.6807    -4866.228   -4985.8238   -399.89911 
   46000    296.20062    -6062.473   -4870.8283   -4940.5211   -233.03577 
   46050    315.56136   -6117.4983   -4847.9634   -4745.9973    340.94995 
   46100    298.92909   -6076.1149   -4873.4933    -4711.278    542.40841 
   46150    308.99286    -6172.471   -4929.3618   -5232.6599   -1014.1549 
   46200    291.73713   -6162.2401   -4988.5524   -5228.3488   -801.82091 
   46250    313.45536   -6257.2664   -4996.2041   -5550.2762    -1852.682 
   46300    314.85388   -6266.6487   -4999.9601   -5936.8688   -3132.7946 
   46350    293.64194   -6210.1122   -5028.7614   -5397.1129   -1231.6779 
   46400    308.62746   -6273.7976   -5032.1585   -5956.6673   -3091.3324 
   46450    287.64725   -6193.6467    -5036.413   -4969.9995     222.0708 
   46500    310.13216   -6284.9814   -5037.2887   -5293.5936   -857.02109 
   46550     303.6047   -6259.9313   -5038.4993   -5530.2578   -1644.3208 
   46600    301.78242    -6230.827   -5016.7261   -5094.5277   -260.14941 
   46650    298.05251   -6169.3804   -4970.2853   -4774.9111    653.28395 
   46700      305.206   -6143.3509   -4915.4766   -4962.5007   -157.23696 
   46750    318.05473   -6156.7123   -4877.1464   -4457.4934    1403.2173 
   46800    299.06282   -6115.8331   -4912.6735   -4752.5111    535.54401 
   46850    307.96916   -6207.2912   -4968.3005   -5316.8289   -1165.3942 
   46900    298.79669   -6212.8297   -5010.7407   -5624.7753   -2053.1822 
   46950    303.55018   -6214.6777    -4993.465   -5391.8919   -1332.2426 
   47000    315.65901   -6202.7906   -4932.8629   -5104.2551   -573.09407 
   47050    308.32657   -6139.9788   -4899.5503   -4908.5319   -30.032363 
   47100    305.86178   -6100.2052   -4869.6926   -4753.5316    388.41419 
   47150    298.69214   -6063.2619   -4861.5936   -4825.7125     119.9777 
   47200    306.22778   -6077.8368   -4845.8518   -4684.5092    539.49058 
   47250    307.97779   -6060.0998   -4821.0744   -4661.2471    534.42352 
   47300    305.02406   -6047.4047   -4820.2624   -4496.2902    1083.2842 
   47350    304.41874   -6079.2673   -4854.5603   -4637.1573    726.94267 
   47400    313.57157   -6167.0492   -4905.5194   -4691.2679    716.40483 
   47450    304.62274   -6198.4446   -4972.9168   -5586.6216   -2052.0793 
   47500    300.71565   -6221.3827   -5011.5735   -5405.8596   -1318.3967 
   47550    304.24354   -6252.0234   -5028.0212   -5298.2415   -903.55061 
   47600    303.44865   -6289.2845   -5068.4802   -5313.4551   -819.13633 
   47650    294.74724   -6249.8029   -5064.0053   -5554.1691   -1638.9885 
   47700    310.73046   -6258.4226    -5008.323    -5629.248   -2076.2223 
   47750    311.52838   -6235.8718    -4982.562   -5269.3709   -959.01912 
   47800    294.37775   -6163.4242   -4979.1131    -5043.454   -215.14023 
   47850    302.27446   -6165.2902   -4949.2098   -5125.0021   -587.80681 
   47900    301.66194   -6098.7902   -4885.1741   -4780.9385    348.53831 
   47950    304.11646   -6021.1038   -4797.6129   -4361.8083    1457.2246 
   48000    313.86752   -5994.1766   -4731.4562   -4337.9882     1315.661 
   48050    310.42402   -5961.7876   -4712.9208   -4207.9682    1688.4386 
   48100     308.6304   -5961.4824   -4719.8315   -4194.0541    1758.0716 
   48150    294.42368   -5925.8739    -4741.378   -4027.7113    2386.3276 
   48200    305.95354   -5997.0513   -4766.1696   -4504.8939     873.6424 
   48250    311.15426   -6050.7878   -4798.9832   -4377.2725    1410.0978 
   48300    308.22302   -6066.4307   -4826.4187   -4470.1681    1191.2154 
   48350    298.02042   -6027.7359     -4828.77   -4455.4066    1248.4362 
   48400    306.27107   -6016.9204   -4784.7612   -4394.5782    1304.6771 
   48450    301.77943   -5921.3838    -4707.295   -4086.0875    2077.1666 
   48500    312.72557    -5865.234   -4607.1078   -3622.7711    3291.3826 
   48550    318.89878   -5850.7543   -4567.7926     -3798.64     2571.859 
   48600    303.76658   -5823.3506   -4601.2673    -4003.641    1998.3168 
   48650     302.8399   -5866.7313   -4648.3761   -4091.4627    1862.1831 
   48700    302.02425   -5887.3885   -4672.3147   -4005.1355    2230.8849 
   48750    310.97412   -5967.3221   -4716.2422   -4412.7672    1014.7465 
   48800    308.98928   -6008.1135   -4765.0187   -4682.7075    275.22863 
   48850    290.77318   -5985.5293   -4815.7197   -4740.7176    250.78897 
   48900    291.31981   -5965.4049   -4793.3962    -4304.312    1635.3785 
   48950    315.86584   -5971.7769   -4701.0171   -4394.3171      1025.53 
   49000    318.57018   -5909.4641   -4627.8244   -3998.7681    2103.4114 
   49050    316.36223   -5873.3518    -4600.595   -3847.1497    2519.3376 
   49100    310.64541   -5902.2046   -4652.4471   -4301.7068    1172.7901 
   49150     289.0446    -5876.657   -4713.8017   -4190.6986    1749.1293 
   49200     295.3832   -5906.3532   -4717.9971   -4542.2665    587.60043 
   49250    300.84689   -5897.4061   -4687.0689   -4203.4366    1617.1488 
   49300    300.49994   -5875.9823    -4667.041   -4046.9354    2073.4821 
   49350    313.47153    -5967.161   -4706.0337    -4580.858     418.5571 
   49400    309.79712   -5995.6154   -4749.2707   -4512.6074    791.34443 
   49450    306.61748   -6013.2862   -4779.7335   -4848.3962    -229.5914 
   49500    304.74578   -6034.8835   -4808.8608   -4459.9373    1166.7151 
   49550    306.14508   -6083.3323   -4851.6801   -4823.2396    95.098015 
   49600    308.96162   -6144.9492   -4901.9657   -5068.8231   -557.93042 
   49650    298.22886   -6140.6053   -4940.8008   -5158.2923   -727.23846 
   49700    311.18479   -6216.6841   -4964.7566   -5480.4549   -1724.3695 
   49750     302.0012   -6214.6237   -4999.6426   -5090.1635   -302.67985 
   49800    298.67673   -6251.8209   -5050.2146   -5521.4935   -1575.8418 
   49850    285.13982   -6229.1551   -5082.0091   -5153.5721   -239.28935 
   49900    298.90135   -6258.6258   -5056.1158    -5394.434   -1131.2535 
   49950    310.23684   -6277.3085   -5029.1947   -5435.2961   -1357.9044 
  STMD DIG: istep= 50000  TSC1= 50000 Tlow= 0.968721
   50000    296.40382   -6243.6497   -5051.1875   -5173.2886   -408.27641 
   50050    300.34973   -6274.2014   -5065.8644   -5668.8001   -2016.0704 
   50100    312.71463   -6315.4534   -5057.3712   -5630.0468   -1914.8879 
   50150    309.75588   -6336.5672   -5090.3884   -5898.2453   -2701.2772 
   50200    295.05257   -6335.3766   -5148.3506   -6002.3047   -2855.4147 
   50250    296.86146    -6348.847   -5154.5436   -5979.8054   -2759.4743 
   50300    305.24259   -6333.3909   -5105.3694   -5771.1605   -2226.2433 
   50350    313.08789   -6293.6242   -5034.0403   -5505.8047   -1577.4652 
   50400     300.8991   -6206.5708   -4996.0237   -5004.3621   -27.881563 
   50450    311.34172   -6245.2716   -4992.7127   -5222.9105   -769.72522 
   50500    290.93716   -6147.9621   -4977.4928   -5017.7615   -134.64877 
   50550    307.77602    -6164.902   -4926.6883   -5032.3559   -353.32676 
   50600    308.32729   -6115.1488   -4874.7173   -4814.2551    202.17104 
   50650    309.34025   -6100.3186   -4855.8119   -4718.8528    457.95792 
   50700     306.1569   -6103.7963   -4872.0965   -5024.4446   -509.41524 
   50750    297.76205   -6085.5454   -4887.6189   -4826.2092     205.3391 
[...]
  988300    317.62622   -7428.5825   -6150.7405    -13187.88   -23530.482 
  988350    307.03387    -7414.933    -6179.705   -12891.517   -22442.664 
  988400    309.49271    -7419.994   -6174.8739   -13071.143   -23059.445 
  988450    295.13336   -7384.8462   -6197.4952   -12002.105   -19409.203 
  988500    309.88333   -7419.1916   -6172.4999   -13084.191   -23111.013 
  988550    308.28577   -7421.4004   -6181.1359   -13203.571   -23481.314 
  988600      320.407   -7453.0348   -6164.0054   -13566.065   -24750.685 
  988650    300.24996   -7437.1133   -6229.1777    -13741.91   -25120.747 
  988700    306.28383   -7465.1224   -6232.9119   -13941.242    -25774.78 
  988750    300.39755   -7470.9286   -6262.3992   -13937.231   -25662.769 
  988800    299.40733   -7473.2252   -6268.6795   -14043.793   -25998.089 
  988850    297.18198   -7454.5117   -6258.9189   -13480.356    -24146.73 
  988900     310.7301   -7461.2349   -6211.1366   -13617.134   -24763.851 
  988950     307.0163   -7432.8521   -6197.6948   -13450.042   -24250.085 
  989000    301.95563   -7408.9813   -6194.1837   -12783.611   -22033.443 
  989050    311.55628   -7415.4134   -6161.9913   -12710.503   -21896.631 
  989100    308.23939   -7368.4633   -6128.3855    -11906.96   -19322.147 
  989150    304.90286   -7312.0523   -6085.3976   -11520.475   -18173.577 
  989200    324.09985   -7334.7963   -6030.9102   -11660.124   -18822.721 
  989250      309.734   -7355.4315   -6109.3406   -11952.394    -19537.75 
  989300    307.88164   -7422.0754   -6183.4368   -12935.827   -22578.349 
  989350    303.45319   -7485.3639   -6264.5414   -13833.185   -25307.704 
  989400    279.70314   -7481.6794   -6356.4057   -14259.929    -26427.46 
  989450    288.69806   -7481.5135   -6320.0523     -14060.6   -25882.508 
  989500    290.45509   -7413.7692   -6245.2394   -12746.555   -21738.817 
  989550    319.55213   -7375.9496   -6090.3594   -11875.505   -19344.118 
  989600    325.89515   -7292.8548   -5981.7461   -11288.435   -17744.275 
  989650    318.90898   -7251.1655   -5968.1628   -11185.597   -17445.829 
  989700    306.69716   -7277.6437   -6043.7704   -11639.258   -18709.949 
  989750    295.92942   -7348.4353   -6157.8817   -12133.456   -19980.867 
  989800    291.26228   -7421.1698   -6249.3925    -13105.88   -22926.426 
  989850     306.6047   -7502.5766   -6269.0752   -14069.129   -26081.483 
  989900    289.46755    -7490.703   -6326.1462   -14111.274   -26031.572 
  989950    299.41034   -7487.2763   -6282.7185   -13842.458    -25277.93 
  990000    314.33907   -7466.9208   -6202.3032   -13773.597   -25316.564 
  990050    299.19132   -7397.0864   -6193.4098   -12433.553   -20865.519 
  990100    299.03877   -7358.2799    -6155.217   -11786.574   -18829.889 
  990150    311.38888   -7334.5849   -6081.8363   -11966.167   -19675.769 
  990200    314.89838   -7303.8897    -6037.022   -11549.273   -18431.628 
  990250    314.97313   -7311.0114    -6043.843   -11597.642   -18570.553 
  990300    313.25799   -7356.7221   -6096.4539   -11870.465    -19306.89 
  990350    306.14031   -7396.2958   -6164.6627   -12367.595   -20741.097 
  990400    289.52458    -7386.774   -6221.9877   -12302.294   -20331.065 
  990450    302.22214   -7409.9823   -6194.1124   -12741.895   -21894.193 
  990500    292.32396   -7390.1733   -6214.1248   -12308.848   -20379.271 
  990550    302.30852   -7380.8631   -6164.6457   -12033.257   -19623.208 
  990600    309.80194   -7345.3519   -6098.9877   -11999.497   -19729.867 
  990650    305.96925   -7303.5421   -6072.5973   -11375.403   -17731.293 
  990700    312.84735   -7311.3334   -6052.7172   -11663.885   -18762.378 
  990750    315.19667   -7330.9531   -6062.8854   -11798.607   -19178.859 
  990800    299.58279   -7339.4895    -6134.238   -12018.651   -19676.043 
  990850    293.08437   -7360.6475   -6181.5398   -12059.976   -19656.061 
  990900     294.2152   -7372.4722    -6188.815    -12122.55   -19840.965 
  990950    299.41599   -7376.7283   -6172.1478   -12097.969   -19814.505 
  991000    302.44219   -7350.7679   -6134.0127   -11763.111   -18822.335 
  991050    301.02273     -7301.26   -6090.2154   -11332.358   -17528.449 
  991100    306.09425   -7280.3178   -6048.8701   -11360.353   -17760.305 
  991150    314.33239     -7281.85   -6017.2593    -11271.51   -17568.934 
  991200    301.76129   -7280.9307   -6066.9148   -11135.165   -16946.996 
  991250    296.32553   -7323.0274   -6130.8801   -11728.874   -18718.328 
  991300    298.85699    -7362.425   -6160.0934   -12092.083   -19835.131 
  991350    311.38017   -7412.4545    -6159.741    -12918.53   -22599.747 
  991400    303.19665   -7401.1598   -6181.3694   -12777.576   -22056.109 
  991450    303.49177   -7405.6437   -6184.6659   -12899.986   -22454.395 
  991500    298.58671   -7380.1945   -6178.9503   -12027.385   -19555.741 
  991550    300.32756   -7357.6978     -6149.45   -11801.844   -18900.229 
  991600     309.0103    -7346.504   -6103.3246   -11975.743   -19635.939 
  991650    310.79808   -7316.3941   -6066.0224   -11609.377    -18535.63 
  991700    321.88834   -7308.4108   -6013.4218   -11607.823   -18706.317 
  991750    306.25621    -7283.333   -6051.2337   -11215.556   -17268.236 
  991800    297.16779   -7290.8376   -6095.3019   -11179.816   -17001.378 
  991850    305.88094   -7348.5238   -6117.9342   -11990.681   -19637.035 
  991900    299.57829   -7380.1081   -6174.8747   -12265.074   -20364.144 
  991950    315.74863   -7461.0618   -6190.7735   -13740.998   -25246.114 
  992000    299.39213   -7484.1613   -6279.6768   -14073.753   -26061.495 
  992050    296.62386   -7494.7944    -6301.447   -14105.787   -26095.815 
  992100    299.55569   -7484.6248   -6279.4823   -13948.347   -25642.818 
  992150    298.90755   -7442.6806   -6240.1457   -13698.837   -24940.048 
  992200    314.94419    -7432.963   -6165.9111   -13503.407   -24534.802 
  992250    295.92778   -7361.2898   -6170.7428   -11988.505   -19453.181 
  992300    304.09753   -7349.8486   -6126.4338   -11712.314   -18677.823 
  992350    304.58009   -7325.6392   -6100.2831   -11789.346   -19022.842 
  992400    302.35102   -7310.8319   -6094.4436   -11643.571   -18554.931 
  992450     307.6327   -7321.6527   -6084.0156   -11548.309   -18271.269 
  992500    302.53825   -7324.4481   -6107.3065   -11541.414   -18170.332 
  992550    308.53938   -7346.6285   -6105.3437   -11985.334   -19661.258 
  992600    308.83918   -7350.4743   -6107.9834   -11914.304   -19414.922 
  992650    295.70761   -7329.1934   -6139.5321   -11900.311   -19262.642 
  992700    300.01578   -7346.0792   -6139.0857   -12069.806   -19830.886 
  992750    309.97705   -7353.2241   -6106.1554   -11986.902   -19663.785 
  992800    305.66581   -7327.0782   -6097.3541    -11704.83   -18750.034 
  992850    304.79267   -7323.3933   -6097.1819   -11518.734   -18128.352 
  992900     319.5146   -7350.4221   -6064.9829   -12136.324   -20301.087 
  992950    298.12577   -7308.5066   -6109.1169   -11375.315   -17608.886 
  993000    306.79022   -7303.7167   -6069.4689   -11093.629   -16799.569 
  993050    309.75492   -7271.0078   -6024.8328   -10982.377   -16576.821 
  993100    321.40614    -7287.215   -5994.1659   -11190.848   -17376.439 
  993150    306.04343   -7278.5564   -6047.3131    -11117.92   -16954.877 
  993200    300.92178    -7313.753   -6103.1147    -11539.29   -18177.248 
  993250    293.78253   -7325.6085    -6143.692   -11691.158   -18549.378 
  993300    307.98578   -7369.6309   -6130.5733   -12561.131   -21502.222 
  993350    306.89945   -7383.4856   -6148.7984   -12349.744   -20734.452 
  993400    300.63244   -7380.5462   -6171.0718   -12357.956   -20687.436 
  993450    315.34813   -7412.4422   -6143.7651   -13210.345   -23628.924 
  993500     296.2252   -7380.6702   -6188.9266   -12337.327   -20558.755 
  993550    312.04504   -7410.8995   -6155.5111   -13155.897   -23407.587 
  993600    294.78351   -7356.9643   -6171.0207   -11995.506   -19475.662 
  993650    308.98512   -7379.1877   -6136.1097   -12404.783   -20960.918 
  993700    309.12034   -7357.1721   -6113.5501   -11909.781   -19381.185 
  993750    308.53907   -7325.2462   -6083.9627   -11578.355   -18371.912 
  993800    299.96292   -7269.6674   -6062.8866    -11073.97   -16755.845 
  993850    320.02343   -7275.6217   -5988.1355   -10981.539   -16696.725 
  993900    311.45873   -7240.2945   -5987.2649    -11244.46   -17578.782 
  993950    313.26973   -7263.0435   -6002.7281   -11206.207   -17399.167 
  994000    302.28551   -7282.5947   -6066.4698   -11382.643   -17775.989 
  994050    299.91144   -7319.6011   -6113.0274   -11380.326   -17612.565 
  994100    299.51225   -7363.6387    -6158.671   -12385.129   -20819.761 
  994150    293.91389   -7388.2214   -6205.7764   -12781.033   -21986.057 
  994200     306.1169   -7429.4836   -6197.9447   -13660.044   -24951.443 
  994250    296.83348   -7433.5246   -6239.3338   -13603.854   -24625.163 
  994300    299.65826   -7454.5169   -6248.9618   -13820.593   -25317.691 
  994350    295.72849   -7441.7972   -6252.0519   -13613.782   -24615.834 
  994400    309.06306   -7449.8188   -6206.4272   -13820.496   -25459.592 
  994450    301.20846   -7405.7072   -6193.9155   -13275.371   -23678.664 
  994500    297.34748    -7357.062   -6160.8034   -12137.856   -19985.809 
  994550    314.60308   -7348.6473   -6082.9677   -11900.148   -19451.234 
  994600    304.87568   -7301.4473   -6074.9019   -11313.131   -17515.362 
  994650    312.01122   -7298.4881   -6043.2357   -11308.111   -17604.461 
  994700    311.95275   -7286.2494   -6031.2323    -11115.36   -17000.087 
  994750    309.76326   -7289.6376   -6043.4291   -11176.604   -17164.087 
  994800    308.54992   -7313.4132    -6072.086   -11474.008   -18062.712 
  994850    295.91773   -7304.4116    -6113.905   -11444.156   -17823.061 
  994900    313.48158   -7333.0944   -6071.9267    -11934.35   -19602.517 
  994950    293.48086    -7297.904   -6117.2012   -11286.469   -17284.773 
  995000    305.44963    -7320.462   -6091.6076   -11491.571   -18056.163 
  995050    294.11599   -7310.8397   -6127.5816   -11478.142   -17890.973 
  995100    299.72699   -7330.2563   -6124.4247   -11729.475   -18741.923 
  995150    315.13431   -7364.8637   -6097.0469   -12244.533   -20555.697 
  995200    310.87353   -7373.5083    -6122.833   -12396.457   -20977.473 
  995250    315.27078   -7416.6285   -6148.2626   -13182.408   -23520.472 
  995300    303.71901   -7423.5276   -6201.6357   -13378.358   -23997.214 
  995350    308.73521   -7449.2223   -6207.1497   -13886.675   -25678.463 
  995400    299.05596   -7440.8911   -6237.7591   -13693.584   -24930.464 
  995450    292.40142   -7424.4569   -6248.0967   -13296.331   -23567.581 
  995500    305.07198   -7438.1345   -6210.7995   -13397.314   -24029.955 
  995550    303.29513   -7408.8594   -6188.6728   -13044.807   -22925.244 
  995600    312.12233   -7386.3444   -6130.6451   -12678.611   -21894.805 
  995650    297.39742   -7306.5869   -6110.1274   -11169.229   -16916.406 
  995700    305.96453   -7289.3037   -6058.3778   -11083.011   -16801.149 
  995750    305.78536   -7250.5994   -6020.3943   -11141.549   -17123.896 
  995800    312.98733   -7250.3315   -5991.1522   -11189.652   -17382.519 
  995850    319.26386   -7279.1769   -5994.7464   -11196.415   -17393.114 
  995900    306.05474   -7284.6811   -6053.3923   -11392.309   -17852.039 
  995950    299.09459   -7288.2884    -6085.001    -11280.55   -17372.653 
  996000    312.77108   -7320.0474   -6061.7381   -11489.812   -18150.157 
  996050    293.22719    -7255.067   -6075.3847   -10911.282   -16170.063 
  996100    309.51656   -7255.4584   -6010.2423   -10859.716    -16215.46 
  996150    306.65037   -7215.9902   -5982.3051   -10879.899   -16376.361 
  996200    301.18861   -7199.7335   -5988.0216   -10928.232   -16518.861 
  996250    312.24866   -7251.8195   -5995.6119   -10984.445   -16681.443 
  996300    301.76828   -7278.0849   -6064.0409   -11077.637   -16764.244 
  996350    301.95903   -7348.6181   -6133.8068   -12252.485   -20459.372 
  996400    297.02321   -7391.9569   -6197.0028   -12939.896   -22546.595 
  996450    294.84492   -7401.7351   -6215.5445   -13038.898   -22815.634 
  996500    303.19111   -7432.8911    -6213.123   -13669.244   -24931.454 
  996550     298.1044   -7442.2147   -6242.9109   -13934.454   -25718.648 
  996600    289.54097   -7436.2702    -6271.418    -13675.02   -24755.844 
  996650    311.02533   -7467.1996   -6215.9136    -13998.54   -26023.209 
  996700    310.01508   -7454.8528   -6207.6312   -13974.294   -25969.832 
  996750    298.03931   -7423.4541   -6224.4122   -13077.051   -22913.558 
  996800    298.93991   -7408.4378   -6205.7727   -12985.247   -22668.911 
  996850    304.40375   -7377.9998   -6153.3531   -12562.028    -21429.05 
  996900    305.81626   -7350.8528   -6120.5234   -12095.401   -19978.536 
  996950    314.40571   -7359.9198   -6095.0342   -12214.594   -20462.318 
  997000    309.17982   -7349.1064   -6105.2451   -11882.646   -19318.221 
  997050    308.32985   -7367.5097   -6127.0679   -12381.645   -20913.785 
  997100    287.80917   -7361.8292   -6203.9441   -12411.109   -20755.247 
  997150    307.22076   -7422.2575   -6186.2777   -13137.576   -23243.449 
  997200    294.84384   -7417.7411   -6231.5549    -13075.09   -22883.117 
  997250    310.49814   -7464.1734   -6215.0083   -14014.701   -26080.275 
  997300    301.79308   -7452.3205   -6238.1768   -13784.728    -25233.83 
  997350    305.45364    -7467.194   -6238.3235   -13971.124   -25856.604 
  997400    303.91353   -7467.8292   -6245.1546   -13970.335   -25831.125 
  997450    292.78458   -7423.8304   -6245.9288   -13291.808   -23559.706 
  997500    308.91535   -7411.7171   -6168.9198   -12971.794   -22747.155 
  997550    295.13117   -7335.1937   -6147.8515   -11630.739   -18333.441 
  997600    306.47628   -7315.5108   -6082.5261   -11430.805   -17883.345 
  997650    310.64977   -7292.9023   -6043.1272   -11169.949   -17142.846 
  997700    312.01127   -7279.1124   -6023.8598   -11038.392   -16767.374 
  997750    309.28857   -7273.5594   -6029.2606   -10745.831   -15771.062 
  997800    302.26855   -7294.4512   -6078.3946    -11467.36   -18019.388 
  997850    317.15017   -7375.0901   -6099.1633   -12417.882   -21128.259 
  997900    291.74624   -7375.4014   -6201.6771   -12545.121   -21210.934 
  997950     298.3273   -7431.5309   -6231.3304   -13610.625   -24674.567 
  998000    297.86692   -7442.6481   -6244.2997    -13715.05   -24980.372 
  998050    307.40155   -7466.9171   -6230.2099   -14046.171   -26134.671 
  998100    308.67823   -7474.2153   -6232.3719   -14138.694   -26436.818 
  998150    299.92901    -7444.179   -6237.5346   -13575.235   -24535.484 
  998200    304.20268   -7430.2944   -6206.4565     -13210.4   -23419.483 
  998250    301.70894   -7398.0375   -6184.2323   -12824.442   -22203.245 
  998300    314.83263   -7383.9248   -6117.3216   -12500.173     -21342.7 
  998350    306.58614   -7350.3076   -6116.8809   -11865.449   -19221.813 
  998400    293.50097   -7335.4241   -6154.6404   -11781.349   -18814.344 
  998450    303.76758   -7351.9026   -6129.8153   -11881.256   -19231.417 
  998500    320.79632   -7380.7686    -6090.173   -12547.845   -21592.884 
  998550    301.36478   -7373.0604   -6160.6398   -12517.058   -21254.315 
  998600      295.094    -7398.163   -6210.9704   -12926.266   -22454.316 
  998650    308.99787   -7459.8996   -6216.7703   -13959.083    -25888.41 
  998700    298.75177   -7468.3747   -6266.4664   -14157.363   -26385.237 
  998750    297.90357     -7477.25   -6278.7541   -14151.068   -26323.101 
  998800    301.67122   -7474.4801   -6260.8267   -14096.665   -26201.136 
  998850    310.22261   -7468.6804   -6220.6238   -13961.047   -25882.093 
  998900    299.08837   -7426.2913   -6223.0289   -13168.159   -23222.825 
  998950     298.3001   -7402.5737   -6202.4825   -12928.103    -22488.84 
  999000    316.56565   -7409.4926   -6135.9174   -12886.527   -22572.397 
  999050    307.71033   -7368.1664    -6130.217   -12274.776    -20545.91 
  999100    307.08211   -7357.8172   -6122.3951   -11860.963   -19188.375 
  999150    318.69476   -7369.6472   -6087.5064    -12388.86   -21070.192 
  999200    311.43494   -7341.8245   -6088.8907    -11841.98   -19236.931 
  999250    307.27209   -7329.3341   -6093.1478    -11421.06   -17815.242 
  999300    300.79171   -7327.8111   -6117.6959   -11276.221   -17248.851 
  999350    299.73009   -7332.1455   -6126.3014   -11525.942   -18055.083 
  999400    306.28601   -7348.0955   -6115.8762   -12183.834   -20289.775 
  999450    317.65946   -7389.2034   -6111.2276   -12858.451   -22561.072 
  999500    303.64614   -7407.6499   -6186.0512    -13097.78   -23111.139 
  999550    307.00909   -7461.3719   -6226.2437   -13808.206   -25352.235 
  999600    307.11116   -7493.2365   -6257.6976    -14047.25   -26046.366 
  999650    299.96119   -7495.7084   -6288.9345   -14188.955   -26415.748 
  999700    300.49242   -7473.2607   -6264.3496   -13895.982    -25518.32 
  999750    307.91115   -7445.2474   -6206.4901   -13448.066   -24214.069 
  999800     304.5654     -7387.16    -6161.863    -12788.06    -22156.39 
  999850    304.78625   -7337.0435   -6110.8579   -11548.915   -18183.539 
  999900     302.4273    -7285.675   -6068.9798   -11058.781    -16684.68 
  999950    307.58017   -7263.1892   -6025.7635   -10802.317   -15971.632 
 1000000    313.62068   -7266.8897   -6005.1624   -10744.793   -15848.171 
Loop time of 7263.23 on 8 procs for 1000000 steps with 2004 atoms

Performance: 23.791 ns/day, 1.009 hours/ns, 137.680 timesteps/s
73.8% CPU use with 8 MPI tasks x 1 OpenMP threads

MPI task timing breakdown:
Section |  min time  |  avg time  |  max time  |%varavg| %total
---------------------------------------------------------------
Pair    | 3719.4     | 3747.2     | 3766.5     |  23.8 | 51.59
Bond    | 3.2058     | 11.969     | 22.771     | 201.0 |  0.16
Kspace  | 2245.4     | 2277.1     | 2314.7     |  40.6 | 31.35
Neigh   | 430        | 430.66     | 431.93     |   3.4 |  5.93
Comm    | 376.38     | 383.76     | 390.87     |  23.2 |  5.28
Output  | 2.0824     | 2.907      | 8.3431     | 120.5 |  0.04
Modify  | 362.5      | 363.17     | 363.65     |   1.8 |  5.00
Other   |            | 46.51      |            |       |  0.64

Nlocal:    250.5 ave 269 max 239 min
Histogram: 2 0 0 2 2 1 0 0 0 1
Nghost:    5016.38 ave 5087 max 4941 min
Histogram: 1 1 0 1 0 1 2 1 0 1
Neighs:    88551.5 ave 95697 max 83740 min
Histogram: 2 0 1 2 0 1 1 0 0 1

Total # of neighbors = 708412
Ave neighs/atom = 353.499
Ave special neighs/atom = 2.34032
Neighbor list builds = 83717
Dangerous builds = 0

write_restart     restart.peptide.*
PPPM initialization ...
  using 12-bit tables for long-range coulomb (../kspace.cpp:321)
  G vector (1/distance) = 0.268725
  grid = 15 15 15
  stencil order = 5
  estimated absolute RMS force accuracy = 0.0228209
  estimated relative force accuracy = 6.87243e-05
  using double precision FFTs
  3d grid and FFT values/proc = 2744 512
STMD: STAGE= 1, #bins= 251  binsize= 12.000000
  Emin= -8500.000000 Emax= -5500.000000 f-value= 1.024290 df= 0.001000
  f-tolerances: STG3= 1.000480 STG4= 1.000048
write_data        data.peptide.${rep}
write_data        data.peptide.0
PPPM initialization ...
  using 12-bit tables for long-range coulomb (../kspace.cpp:321)
  G vector (1/distance) = 0.268725
  grid = 15 15 15
  stencil order = 5
  estimated absolute RMS force accuracy = 0.0228209
  estimated relative force accuracy = 6.87243e-05
  using double precision FFTs
  3d grid and FFT values/proc = 2744 512
STMD: STAGE= 1, #bins= 251  binsize= 12.000000
  Emin= -8500.000000 Emax= -5500.000000 f-value= 1.024290 df= 0.001000
  f-tolerances: STG3= 1.000480 STG4= 1.000048
Total wall time: 2:01:03
