LAMMPS (22 Aug 2018)
  using 1 OpenMP thread(s) per MPI task
units           real
atom_style      full

pair_style        lj/charmm/coul/long 8.0 10.0 10.0
bond_style        harmonic
angle_style       charmm
dihedral_style    charmm
improper_style    harmonic
kspace_style      pppm 0.0001

# Define variables
variable tlo equal 150
variable thi equal 350
variable rep equal 0
variable temp equal 305.0
variable steps equal 100000

read_data         data.peptide
  orthogonal box = (36.8402 41.0137 29.7681) to (64.2116 68.3851 57.1395)
  2 by 2 by 7 MPI processor grid
  reading atoms ...
  2004 atoms
  reading velocities ...
  2004 velocities
  scanning bonds ...
  3 = max bonds/atom
  scanning angles ...
  6 = max angles/atom
  scanning dihedrals ...
  14 = max dihedrals/atom
  scanning impropers ...
  1 = max impropers/atom
  reading bonds ...
  1365 bonds
  reading angles ...
  786 angles
  reading dihedrals ...
  207 dihedrals
  reading impropers ...
  12 impropers
  4 = max # of 1-2 neighbors
  7 = max # of 1-3 neighbors
  14 = max # of 1-4 neighbors
  18 = max # of special neighbors
#read_data         data.peptide.${rep}

neighbor          2.0 bin
neigh_modify      delay 5

timestep          2.0

thermo_style      custom step temp pe etotal enthalpy press
thermo            50

fix               fxnvt all nvt temp ${temp} ${temp} 100.0 tchain 1
fix               fxnvt all nvt temp 305 ${temp} 100.0 tchain 1
fix               fxnvt all nvt temp 305 305 100.0 tchain 1
fix	              fxSTMD all stmd ${steps} constant_f 0.001 ${tlo} ${thi} -8500 -5500 12 50000 500000 fxnvt no
fix	              fxSTMD all stmd 100000 constant_f 0.001 ${tlo} ${thi} -8500 -5500 12 50000 500000 fxnvt no
fix	              fxSTMD all stmd 100000 constant_f 0.001 150 ${thi} -8500 -5500 12 50000 500000 fxnvt no
fix	              fxSTMD all stmd 100000 constant_f 0.001 150 350 -8500 -5500 12 50000 500000 fxnvt no
fix               2 all shake 0.0001 10 0 b 4 6 8 10 12 14 18 a 31
  19 = # of size 2 clusters
  6 = # of size 3 clusters
  3 = # of size 4 clusters
  640 = # of frozen angles

group             peptide type <= 12
84 atoms in group peptide
#dump              mydump peptide dcd 1000 ${rep}.dcd
#dump_modify       mydump pad 8
#dump_modify       mydump unwrap yes

run               ${steps}
run               100000
PPPM initialization ...
  using 12-bit tables for long-range coulomb (../kspace.cpp:321)
  G vector (1/distance) = 0.268725
  grid = 15 15 15
  stencil order = 5
  estimated absolute RMS force accuracy = 0.0228209
  estimated relative force accuracy = 6.87243e-05
  using double precision FFTs
  3d grid and FFT values/proc = 1764 192
Neighbor list info ...
  update every 1 steps, delay 5 steps, check yes
  max neighbors/atom: 2000, page size: 100000
  master list distance cutoff = 12
  ghost atom cutoff = 12
  binsize = 6, bins = 5 5 5
  1 neighbor lists, perpetual/occasional/extra = 1 0 0
  (1) pair lj/charmm/coul/long, perpetual
      attributes: half, newton on
      pair build: half/bin/newton
      stencil: half/bin/3d/newton
      bin: standard
STMD: STAGE=1, #bins=251  binsize=12.000000
  Emin=-8500.000000 Emax=-5500.000000 f-value=1.024290 df=0.001000
  f-tolerances: STG3=1.000480 STG4=1.000048
Per MPI rank memory allocation (min/avg/max) = 14.75 | 14.85 | 15.14 Mbytes
Step Temp PotEng TotEng Enthalpy Press 
       0    303.06656   -6135.9847   -4916.7176   -4142.6592    2588.2629 
      50    290.59402   -6017.9277   -4848.8389   -4461.0573    1296.6474 
     100    312.22832   -5952.8696   -4696.7438   -3921.0778    2593.6385 
     150    311.15712   -5822.4971   -4570.6809   -3843.7682    2430.6191 
     200    314.72129   -5777.0155   -4510.8602   -3924.6799    1960.0443 
     250    322.39359   -5830.8806   -4533.8589   -3652.9152    2945.6613 
     300    296.06063   -5819.3628   -4628.2813   -4229.6438    1332.9466 
     350    297.02077   -5890.9638   -4696.0196   -4362.0684    1116.6513 
     400    294.55608   -5858.6418   -4673.6132   -4147.2732    1759.9529 
     450    316.05896   -5873.5622   -4602.0254   -4070.9416     1775.815 
     500    316.93277   -5832.1425   -4557.0903   -3703.7738    2853.2828 
     550    305.06085   -5831.1667   -4603.8765    -3678.703     3093.555 
     600     296.7913   -5889.0732   -4695.0522   -4119.6291    1924.0747 
     650     294.2273    -5924.081   -4740.3752   -4156.6929    1951.6915 
     700    297.20784   -5895.4829    -4699.786   -3986.0211    2386.6561 
     750    304.02266   -5817.8889   -4594.7753   -3628.0933    3232.3493 
     800    317.92787   -5797.1711   -4518.1155   -3721.5553    2663.5033 
     850    301.30163   -5751.0448   -4538.8782   -4001.5282    1796.7677 
     900    302.74649   -5838.7972   -4620.8178   -4156.4906    1552.5971 
     950    300.12459   -5887.9985   -4680.5673    -3947.567    2450.9745 
    1000    290.65909   -5851.7397   -4682.3891   -4428.7243    848.19356 
    1050    316.45649   -5928.8658   -4655.7298   -4100.7497    1855.7182 
    1100    311.43525    -5880.584   -4627.6488   -4207.4872    1404.9184 
    1150    312.69661   -5867.3259   -4609.3162   -3780.4874    2771.4017 
    1200    304.61883    -5866.069    -4640.557   -4065.0206    1924.4538 
    1250     313.7269   -5917.2188   -4655.0642   -4143.0972    1711.8928 
    1300    307.54299   -5931.2857   -4694.0095   -4266.9238    1428.0709 
    1350    294.57033   -5934.7144   -4749.6285   -4334.3166    1388.7019 
    1400    298.26394    -5953.012   -4753.0663    -4260.559    1646.8247 
    1450    306.08171   -5943.9608   -4712.5635   -4219.5617     1648.478 
    1500    309.64713   -5928.3519   -4682.6106   -4158.6731    1751.9195 
    1550     296.7311   -5846.2978   -4652.5189   -3916.6001    2460.7336 
    1600    311.81753   -5888.3589   -4633.8858   -4166.3706    1563.2569 
    1650    313.98252   -5919.9261   -4656.7431   -4135.8921    1741.5988 
    1700    299.67702   -5910.5727   -4704.9421   -4203.9058    1675.3434 
    1750    304.39648   -5934.9537   -4710.3363   -4284.4553    1424.0423 
    1800    309.72322   -5966.3393   -4720.2918   -4059.2612    2210.3254 
    1850    299.98498   -5947.8496   -4740.9801   -4260.0404     1608.145 
    1900    298.89439   -5916.5522   -4714.0702   -4118.5833    1991.1633 
    1950    310.32538   -5908.9911   -4660.5211   -3993.6977    2229.6954 
    2000    303.22454   -5843.4351   -4623.5325   -3861.2627    2548.8447 
    2050    314.09692   -5898.2581   -4634.6148   -3611.8619    3419.8367 
    2100    298.32674   -5908.2827   -4708.0844   -4057.0855     2176.782 
    2150    298.29431   -5947.1599   -4747.0921   -4341.5444    1356.0526 
    2200    295.60675   -5930.6199   -4741.3644   -4504.9279    790.58601 
    2250      297.781   -5886.3746   -4688.3718   -4018.1993    2240.8938 
    2300    310.59327   -5857.1395   -4607.5917   -3693.2378    3057.3767 
    2350    314.73028   -5815.9778   -4549.7864   -3798.9253    2510.6967 
    2400     311.0446   -5845.7205    -4594.357   -3899.5299    2323.3327 
    2450    302.01483   -5910.8356   -4695.7997   -4139.1283    1861.3738 
    2500    293.48016   -5952.6477   -4771.9477   -4711.5331     202.0116 
    2550    294.55456   -5994.1055   -4809.0831   -4460.0973    1166.9237 
    2600    306.94911   -6016.3522   -4781.4652   -4535.1905    823.48272 
    2650    309.90622    -5983.155   -4736.3713     -4038.83    2332.4083 
    2700    309.12742   -5979.5823   -4735.9318   -4244.6108    1642.8578 
    2750    295.81634   -5939.2263   -4749.1276   -4199.7226    1837.0766 
    2800     292.0708   -5915.1377   -4740.1077   -3901.5708    2803.8633 
    2850    305.92487   -5907.3762   -4676.6099   -4018.1217    2201.8243 
    2900    316.77608   -5882.9328    -4608.511   -4115.0418    1650.0408 
    2950    311.35157   -5849.5412   -4596.9427   -3815.8245    2611.8692 
    3000    304.44385    -5869.273    -4644.465    -4139.513    1688.4366 
    3050    300.96542   -5881.0356   -4670.2216   -4071.0527    2003.4752 
    3100    306.82941   -5894.6016   -4660.1962   -3896.5052    2553.5969 
    3150    310.03459   -5930.0512   -4682.7511   -4105.4323    1930.4134 
    3200    290.16799    -5921.625   -4754.2502   -3981.1581    2585.0318 
    3250     304.6519   -5999.6086   -4773.9635   -4666.2599    360.13476 
    3300    312.99454   -6001.9906   -4742.7823   -4638.3279    349.27017 
    3350    303.66697   -5953.4096    -4731.727   -4164.8943    1895.3505 
    3400    295.66965   -5919.2932   -4729.7846   -3899.1659    2777.3869 
    3450    303.38953   -5888.6535   -4668.0871   -3691.0651    3266.9239 
    3500    314.27846   -5840.6294   -4576.2557   -3596.5631    3275.8535 
    3550    307.43442   -5782.4532   -4545.6137   -3891.6864    2186.5738 
    3600    313.28185   -5851.8988   -4591.5346   -3824.6898    2564.1426 
    3650    297.51911    -5876.307   -4679.3579    -4267.159    1378.2928 
    3700    304.93206   -5984.5949   -4757.8227   -4308.3272    1503.0038 
    3750    305.52503   -6065.7545   -4836.5968   -4529.0924    1028.2199 
    3800    291.97268   -6010.7401   -4836.1048   -4774.0863     207.3748 
    3850      307.402   -6006.3799   -4769.6709    -4375.302    1318.6735 
    3900    305.10757    -5910.909   -4683.4307     -3949.97    2452.5142 
    3950    306.64244   -5846.9501   -4613.2969   -3633.9927     3274.555 
    4000    302.56245    -5820.335    -4603.096   -4032.1339    1909.1582 
    4050    304.97417   -5854.5453   -4627.6037   -3952.0139    2259.0077 
    4100    309.35193   -5909.3377    -4664.784   -4307.5033    1194.6595 
    4150    304.28372   -5970.8753   -4746.7115   -4332.5969    1384.6984 
    4200    295.06296   -6007.4618    -4820.394   -4734.1512    288.37481 
    4250    304.13524   -6060.0867   -4836.5202   -4296.3478    1806.2052 
    4300     314.4479   -6060.5598   -4795.5045   -4277.8763    1730.8228 
    4350    308.71923   -5981.2127   -4739.2044   -4404.9519     1117.659 
    4400    305.79121   -5929.8576    -4699.629   -4131.9292      1898.25 
    4450    317.40956   -5972.5872   -4695.6168   -4012.1285    2285.4186 
    4500    308.85453   -6033.5889   -4791.0363   -4509.2418    942.25208 
    4550    290.40903   -6055.6531   -4887.3085   -4902.1998   -49.792993 
    4600    292.02079   -6036.9689   -4862.1401   -4711.5867      503.414 
    4650    309.78131   -6000.6812      -4754.4    -4299.326    1521.6568 
    4700    314.85549   -5909.0681    -4642.373   -3972.0986    2241.2345 
    4750    307.15465   -5794.9879   -4559.2741   -3944.6981    2054.9925 
    4800    308.58307   -5755.2098   -4513.7492   -3755.7674     2534.507 
    4850    317.20455   -5796.8497   -4520.7041   -3797.6989    2417.5535 
    4900    306.72357   -5839.1096     -4605.13    -4054.527    1841.0825 
    4950    299.18502    -5916.504   -4712.8528    -4358.898    1183.5386 
    5000    296.61697   -5954.3666   -4761.0469   -4561.1065    668.55197 
    5050    309.78801   -6006.2419   -4759.9337   -4385.7866     1251.057 
    5100    307.52948    -5972.972   -4735.7501    -4289.571    1491.9145 
    5150    301.52774   -5908.3026   -4695.2264   -4182.9432    1712.9504 
    5200    314.82739   -5862.5727   -4595.9906   -3969.3753    2095.2492 
    5250      313.069   -5770.5669    -4511.059   -3712.7353    2669.4004 
    5300    313.16053   -5772.0273   -4512.1512   -3772.6631    2472.6684 
    5350    314.07423   -5847.9385   -4584.3865   -3955.0223    2104.4406 
    5400    284.37905   -5824.0878   -4680.0025   -3895.8526    2622.0064 
    5450    299.14034   -5923.5685    -4720.097   -4477.1627    812.31329 
    5500    310.44137   -5942.0908   -4693.1541   -4356.9797    1124.0855 
    5550    308.23478   -5917.2851   -4677.2257   -4087.9101    1970.5282 
    5600     303.7788   -5928.8145    -4706.682   -4309.1654     1329.199 
    5650    296.88254   -5920.5996   -4726.2115   -4378.5198    1162.5964 
    5700    302.87283   -5928.7545   -4710.2668   -4282.5742    1430.0999 
    5750    310.34142   -5937.5816   -4689.0471   -4177.0291    1712.0636 
    5800    299.58717   -5864.6238   -4659.3547   -3834.1504    2759.2825 
    5850    298.71714   -5821.8622   -4620.0933   -3845.1163    2591.3343 
    5900    316.04212    -5839.345    -4567.876   -3686.0006    2948.7766 
    5950    310.63419   -5824.3124      -4574.6   -3734.6837    2808.4757 
    6000    303.15197   -5861.0456   -4641.4349   -3927.1072    2388.5382 
    6050     295.1759   -5887.2527   -4699.7305   -3934.1982    2559.7539 
    6100    303.62734   -5950.7572    -4729.234   -4464.0417    886.73858 
    6150    294.84746   -5942.8324   -4756.6316   -4289.6969    1561.3159 
    6200    300.60921   -5962.3169    -4752.936    -4701.589    171.69167 
    6250    312.43694    -5991.591    -4734.626   -4694.8297    133.06916 
    6300    307.82479   -5979.2524   -4740.8425   -4530.8997    701.99769 
    6350    308.72449   -5998.0288   -4755.9993   -5128.7993   -1246.5526 
    6400    304.47697   -5993.8421   -4768.9009   -4755.3224    45.402981 
    6450    307.56747   -6007.6104   -4770.2357   -4713.8841    188.42592 
    6500    293.43295   -5919.5746   -4739.0645   -4234.6776    1686.5471 
    6550    305.04851   -5877.9854   -4650.7447   -4225.1411    1423.1151 
    6600    307.08631    -5812.641    -4577.202   -3616.6568    3211.8296 
    6650    316.64704   -5858.8362   -4584.9335   -4487.7749    324.87465 
    6700    303.97668   -5851.9147   -4628.9862   -4314.7377    1050.7705 
    6750    306.75859   -5886.2171   -4652.0966   -4145.4469    1694.1135 
    6800    306.16463   -5888.1443   -4656.4134   -4212.8804    1483.0666 
    6850    290.60429   -5785.2889   -4616.1588   -3884.0245    2448.0791 
    6900    309.71461   -5823.3299    -4577.317   -4013.1987    1886.2744 
    6950    314.94362     -5830.31   -4563.2603     -4088.68    1586.8813 
    7000    304.53714   -5845.9414    -4620.758   -4227.6626    1314.4152 
    7050    294.68255    -5887.681   -4702.1436   -4251.3387    1507.3819 
    7100    295.63291     -5920.54   -4731.1793   -4402.5499    1098.8568 
    7150    311.45423   -5977.7945    -4724.783   -4622.7564    341.15207 
    7200    310.16501   -5989.0385   -4741.2137   -4654.3454    290.46629 
    7250    296.13653   -5998.7873   -4807.4004   -4827.5706   -67.444225 
    7300    296.17632    -6064.426   -4872.8791   -4454.5154    1398.9062 
    7350    293.80796   -6057.3777   -4875.3589   -4622.2389    846.37189 
    7400    305.62428   -6036.6065   -4807.0494   -4176.3488    2108.9094 
    7450    309.60023    -5996.648   -4751.0953   -4803.4066   -174.91634 
    7500    318.01999   -6006.5082    -4727.082    -4737.366   -34.387165 
    7550    317.73516   -6025.7713    -4747.491     -4752.38   -16.347491 
    7600    296.76417   -6031.7634   -4837.8515   -4709.2322    430.07156 
    7650    297.08977   -6076.6535   -4881.4317    -4733.961     493.1061 
    7700    305.47797   -6069.3253   -4840.3569   -4817.5998    76.094257 
    7750     306.8663   -6013.3143   -4778.7605   -4351.5189    1428.5919 
    7800    303.58678   -5969.1836   -4747.8236   -4270.9608    1594.5131 
    7850    307.34803   -5990.1356   -4753.6438   -4648.8118    350.53284 
    7900    292.59371   -5962.5446   -4785.4109   -3987.4901    2668.0529 
    7950    311.40667   -6079.0586   -4826.2384     -4820.98     17.58287 
    8000      301.378   -6100.3184   -4887.8446    -4140.543     2498.795 
    8050    292.20701    -6086.913    -4911.335   -4659.4312    842.30493 
    8100    300.46169   -6073.4265   -4864.6391   -4537.0454    1095.3937 
    8150    301.13181   -5991.4084    -4779.925   -4841.6895   -206.52528 
    8200    304.19417   -5913.6335     -4689.83   -4308.5569    1274.8843 
    8250    324.19974    -5905.631   -4601.3431   -4267.7607    1115.4182 
    8300    296.65997   -5771.3443   -4577.8516   -3910.0814     2232.861 
    8350    304.98535   -5825.6961   -4598.7096   -3840.0915    2536.6343 
    8400    306.76031   -5844.4399   -4610.3125   -4239.1104    1241.2097 
    8450    313.17854   -5918.0722   -4658.1236   -3944.5641    2385.9694 
    8500    309.80624   -5998.5856   -4752.2041   -4850.6777   -329.27171 
    8550    303.43197   -6035.7405   -4815.0034   -4902.7241   -293.31662 
    8600    303.54881   -6050.3378   -4829.1306   -4712.4954    389.99998 
    8650    310.41488   -6054.3288   -4805.4987   -4555.7659    835.04572 
    8700    320.17245   -6064.6518   -4776.5661   -4979.8683   -679.79336 
    8750    310.52147   -6042.9873   -4793.7283   -4477.0193     1058.998 
    8800    312.44326   -6084.1552   -4827.1648   -4702.8961     415.5241 
    8850    296.33048   -6041.8679   -4849.7008   -4515.4784    1117.5585 
    8900    309.12554   -6097.1822   -4853.5393   -4715.8907    460.26342 
    8950    301.43577   -6045.8481   -4833.1419   -4118.7012    2388.9159 
    9000    313.22271   -6064.8438   -4804.7176   -4560.6615    816.06403 
    9050    303.10349   -6058.1427   -4838.7271   -4514.3103    1084.7708 
    9100    296.78625   -6072.5851   -4878.5844   -5005.6296   -424.80839 
    9150    300.07615   -6095.0108   -4887.7745   -4911.4182   -79.058954 
    9200    294.26948   -6033.1911   -4849.3155   -4402.1322    1495.2723 
    9250    304.43414   -5985.4982   -4760.7292   -4265.2609    1656.7255 
    9300    313.36775   -5897.9045   -4637.1947   -3986.2324    2176.6596 
    9350    316.38946   -5849.9244    -4577.058   -3662.9553    3056.5368 
    9400    306.49935   -5842.4116   -4609.3341   -3804.6448     2690.685 
    9450    303.11342   -5902.1908   -4682.7352   -4227.8662    1520.9711 
    9500    292.48863   -5905.3125   -4728.6015   -3941.7496    2631.0415 
    9550    301.29108   -5934.1607   -4722.0365   -4323.2244    1333.5306 
    9600     301.0346   -5911.6467   -4700.5544   -3912.8293    2633.9611 
    9650    301.27992   -5906.5404   -4694.4612   -4008.6344    2293.2379 
    9700    296.50798   -5883.7535   -4690.8722   -4138.1817    1848.0627 
    9750    300.49453   -5849.6556    -4640.736   -4077.4195    1883.5935 
    9800    314.16754   -5831.6546   -4567.7272   -3941.1298    2095.1891 
    9850    305.13849   -5747.8221   -4520.2195   -3757.9818    2548.7372 
    9900    313.18441   -5787.3756   -4527.4035   -3618.6869    3038.5269 
    9950    321.20094   -5882.0464   -4589.8229   -3933.5853    2194.2989 
   10000    299.06663   -5889.7597   -4686.5847   -4433.4407    846.45206 
   10050     302.3949   -5982.9795   -4766.4146   -4537.9289    764.00064 
   10100    301.52066   -6028.8341   -4815.7863   -4448.7906    1227.1445 
   10150    296.09673   -6003.1583   -4811.9315   -4545.4434    891.07134 
   10200    304.06552   -5968.3627   -4745.0767   -4098.2619    2162.7913 
   10250    311.89111   -5895.7525   -4640.9834   -3933.5687    2365.4223 
   10300    304.66108   -5817.3477   -4591.6657   -4145.2724    1492.6306 
   10350    303.38084   -5814.3492   -4593.8178    -3695.115    3005.0433 
   10400    309.56337    -5857.643   -4612.2386   -4011.9017    2007.3806 
   10450    309.70737    -5906.506   -4660.5223   -3975.5639     2290.334 
   10500    282.92437   -5876.1311   -4737.8981   -4087.0211    2176.3745 
   10550    304.62108   -6005.3032   -4779.7821   -4785.9778   -20.716917 
   10600    293.07312   -5923.1329   -4744.0705   -4294.8669    1502.0274 
   10650    304.79812   -5896.3235   -4670.0902    -3807.881    2883.0179 
   10700    311.48663   -5893.8757   -4640.7338   -3794.6392    2829.1345 
   10750    304.03489   -5917.2349   -4694.0721   -4458.4232    787.95243 
   10800    302.90143   -5973.0847    -4754.482   -4228.0428    1760.2845 
   10850    304.76464   -6008.6129   -4782.5143   -4571.6665    705.02364 
   10900    305.80697   -6026.5025   -4796.2105   -4392.1079    1351.2209 
   10950    299.89997   -6018.3453   -4811.8178   -4468.2373    1148.8495 
   11000    299.78254   -6023.9396   -4817.8845   -4450.7747    1227.5258 
   11050    313.06977   -6063.5532   -4804.0422   -4748.0431    187.24751 
   11100    308.44056   -6055.2828   -4814.3956   -4808.5609    19.509825 
   11150    288.70509   -6002.1748   -4840.6853   -4699.0819    473.48755 
   11200    293.98335   -5987.3076   -4804.5832   -4469.2673    1121.2147 
   11250    311.40484   -5986.9252   -4734.1124   -4342.8812     1308.182 
   11300    306.33828   -5925.5404   -4693.1109   -4067.9566    2090.3638 
   11350    300.81896   -5907.6147   -4697.3899   -4104.8226    1981.4011 
   11400    302.09323   -5878.9527   -4663.6014   -4007.8502    2192.6727 
   11450    316.42024   -5871.4577   -4598.4674   -4021.7699    1928.3361 
   11500    311.18702   -5829.3909   -4577.4545   -3851.6848    2426.7972 
   11550     307.1651   -5858.7246   -4622.9687   -3949.0623    2253.3788 
   11600    300.98728   -5904.1002   -4693.1983   -4352.8973    1137.8837 
   11650    308.53527   -5993.1271   -4751.8589   -4767.4997   -52.299116 
   11700     302.8484   -5999.3195   -4780.9302   -4401.9063    1267.3636 
   11750    305.25567   -6043.6091    -4815.535    -4736.436    264.48786 
   11800    306.23691   -6094.2919   -4862.2702   -4873.6567   -38.073872 
   11850    297.41243   -6110.0952   -4913.5753   -4911.0298    8.5114631 
   11900    297.26302   -6117.9774   -4922.0585   -4935.3155   -44.328043 
   11950    301.96955    -6081.653   -4866.7993   -4856.6444    33.955513 
   12000    307.08735   -6031.1268   -4795.6837   -4454.5669    1140.6115 
   12050    300.68222   -5958.8338   -4749.1592    -4117.457    2112.2584 
   12100    301.02495   -5952.2226   -4741.1691    -4259.439    1610.7884 
   12150    300.19079   -5926.4383   -4718.7407   -4104.7896    2052.9031 
   12200    305.58715   -5921.1174   -4691.7097   -3749.3845    3150.9063 
   12250    299.29611   -5888.2084   -4684.1102   -3898.1167    2628.1711 
   12300    313.35623   -5933.9138   -4673.2503   -4351.0965     1077.204 
   12350    306.32149   -5868.4957   -4636.1337    -3769.902    2896.4679 
   12400    313.37057   -5905.3636   -4644.6425    -3985.347    2204.5237 
   12450    294.93481   -5872.8412    -4686.289   -4132.8239    1850.6528 
   12500    307.29458   -5939.2659   -4702.9891   -4537.0833    554.74876 
   12550    298.93864   -5926.2677   -4723.6076   -4370.0468    1182.2214 
   12600    303.48165    -5969.305   -4748.3679   -4354.8494    1315.8302 
   12650    292.57408   -5970.3433   -4793.2885   -4119.0852    2254.3719 
   12700    293.44167   -5962.5436   -4781.9984   -4363.5703    1399.1217 
   12750    305.59816   -5924.7662   -4695.3143   -4503.8256    640.29136 
   12800    313.92332   -5842.4217   -4579.4768   -4039.5328    1805.4411 
   12850     317.8112   -5803.3103    -4524.724   -3707.8578    2731.4017 
   12900    317.00564   -5856.2501   -4580.9048   -3774.9161      2695.03 
   12950    296.45013   -5884.5997   -4691.9512   -4337.5835    1184.9194 
   13000    302.46579   -5993.8636   -4777.0135   -4469.7278    1027.4886 
   13050    303.14864   -6068.4749   -4848.8776   -4886.8191   -126.86702 
   13100    288.98657   -6073.7239   -4911.1021   -4802.2993    363.80995 
   13150    294.05921   -6089.6673   -4906.6377   -4907.7274   -3.6439157 
   13200    305.29265   -6065.2251   -4837.0022   -4862.5899    -85.55878 
   13250    306.29382   -6022.8124   -4790.5618   -4445.8449    1152.6493 
   13300    299.98647   -6003.5469   -4796.6714   -4115.7256    2276.9169 
   13350    299.65144   -6022.3275   -4816.7998   -4704.3289    376.07535 
   13400    295.62111   -5984.9434   -4795.6302   -4512.0275    948.29842 
   13450    308.48736   -5994.3844    -4753.309   -4225.1101    1766.1684 
   13500    297.38848   -5948.5734   -4752.1499   -4274.1252    1598.3981 
   13550    310.45761   -6031.9834   -4782.9814    -4816.428   -111.83735 
   13600    287.98512   -5937.8491   -4779.2562   -4527.8514    840.63635 
   13650    296.31807   -5910.2732    -4718.156    -4044.545    2252.3911 
   13700    307.93377   -5870.5661   -4631.7178   -3892.3192    2472.3689 
   13750    313.00283   -5829.7797    -4570.538   -3584.5098    3297.0384 
   13800    308.84226   -5847.1239   -4604.6206   -4103.5639    1675.4117 
   13850    300.05346   -5866.3464   -4659.2013   -3759.5975    3008.0562 
   13900    301.52315   -5876.8682   -4663.8105   -4248.7563    1387.8402 
   13950    308.88069   -5910.7004   -4668.0425   -3910.2021    2534.0338 
   14000    310.69401   -5940.7306   -4690.7776   -4531.5931    532.27422 
   14050      300.532   -5959.8631   -4750.7928   -4360.4835    1305.0994 
   14100    302.33872   -6026.3675   -4810.0286   -4888.4171   -262.11229 
   14150    301.54585   -6066.0898   -4852.9407   -4867.5635   -48.895057 
   14200    302.14738   -6076.1789   -4860.6098   -4750.6585    367.65054 
   14250    307.51724   -6102.3049   -4865.1323   -5122.0807   -859.17286 
   14300    304.22169   -6107.5519   -4883.6377   -4785.1613    329.28084 
   14350    303.59822   -6125.5004   -4904.0944   -5233.3108   -1100.8196 
   14400    309.01139   -6145.3851   -4902.2014   -4689.7438    710.40631 
   14450    303.27164   -6104.0712   -4883.9791   -4971.9982   -294.31457 
   14500    307.43108   -6094.1199   -4857.2939   -4876.2693   -63.448977 
   14550    300.89515   -6025.3507   -4814.8195   -4910.2545   -319.11146 
   14600      303.113   -5967.5236   -4748.0697   -4556.0361    642.11365 
   14650     297.0859   -5897.0121   -4701.8058   -4006.2557    2325.7502 
   14700    305.12529   -5889.7217   -4662.1721   -4011.1067    2177.0044 
   14750    308.40284   -5890.1129   -4649.3774   -4101.7412    1831.1621 
   14800       309.65   -5919.8475   -4674.0946   -4348.0855    1090.0948 
   14850    301.98787   -5914.0623   -4699.1349   -4275.6818    1415.9241 
   14900     303.0625   -5941.2064   -4721.9557   -4254.5412    1562.9202 
   14950    304.28628   -5951.7946   -4727.6205    -4174.034    1851.0588 
   15000    316.85452   -6003.2968   -4728.5594   -4442.7927    955.53422 
   15050    308.63021   -6005.5274   -4763.8772   -4212.4591    1843.8078 
   15100    311.98939   -6065.6936   -4810.5291   -4910.5632    -334.4896 
   15150    293.21534   -6035.9036    -4856.269   -4698.1521    528.70464 
   15200    307.45436   -6065.3906   -4828.4709   -4987.2675   -530.97722 
   15250    315.40971   -6078.3822   -4809.4574   -4802.5651    23.046025 
   15300     311.0618   -6107.4534   -4856.0207   -4879.5481   -78.669771 
   15350    295.21784   -6078.3003   -4890.6094   -4756.8309    447.32282 
   15400    308.86483   -6134.3255   -4891.7314   -4975.2942    -279.4136 
   15450    294.88757   -6099.0861   -4912.7239   -4628.9575    948.84581 
   15500    298.28292   -6119.3679   -4919.3459   -4972.8847   -179.02057 
   15550    305.33718   -6114.2304   -4885.8284   -4905.9776   -67.374052 
   15600    299.59973   -6053.1402   -4847.8206    -4649.221    664.06857 
   15650    301.23508   -5989.9657   -4778.0669   -4400.4327    1262.7171 
   15700    318.66847   -6003.5676   -4721.5325   -4243.8214    1597.3499 
   15750    306.94928   -5945.5488   -4710.6612   -4112.5551    1999.9214 
   15800    288.67394   -5873.5645   -4712.2004   -4036.0964    2260.7271 
   15850    320.60778   -5941.9753   -4652.1381   -4198.2408     1517.722 
   15900    317.41457   -5862.9402   -4585.9496   -4002.1929    1951.9406 
   15950     308.8041   -5850.1918    -4607.842    -3763.073    2824.7023 
   16000    309.97418   -5936.5825   -4689.5254   -3982.9208    2362.7138 
   16050    301.85515   -6000.4177   -4786.0243   -4739.5005    155.56417 
   16100    304.20301   -6092.6864   -4868.8473   -4796.2382    242.78704 
   16150    295.27676   -6105.2439    -4917.316   -4786.1345    438.63898 
   16200    292.79786   -6103.0191    -4925.064   -5000.3806   -251.84035 
   16250    312.31898   -6127.3182   -4870.8278   -4938.3053   -225.62843 
   16300    303.46059   -6071.8976   -4851.0453    -4526.013    1086.8291 
   16350     302.6475   -6064.3779   -4846.7967    -4788.746    194.10734 
   16400    299.29207   -6034.1768   -4830.0949   -4170.2342    2206.4135 
   16450    305.00437   -6068.6238   -4841.5607   -4702.0357    466.53788 
   16500    298.24103   -6023.4723   -4823.6188   -4517.3751    1024.0044 
   16550    307.05096   -5993.5344   -4758.2377     -4280.69    1596.8032 
   16600    312.91471   -5967.1221   -4708.2349   -4308.4374    1336.8258 
   16650    310.83614   -5930.5467   -4680.0219   -3749.3912    3111.8025 
   16700    308.51163   -5911.6412    -4670.468   -4193.9578    1593.3343 
   16750    299.49828   -5855.5072   -4650.5956   -3970.2761    2274.8228 
   16800    308.19382   -5859.4722   -4619.5776   -3767.2167    2850.0875 
   16850    318.79099    -5883.053   -4600.5249    -4129.731    1574.2202 
   16900    310.85004   -5865.3326   -4614.7518   -3556.3131    3539.1615 
   16950    303.26843   -5898.5469   -4678.4677    -3913.986    2556.2406 
   17000    282.33901   -5900.6658   -4764.7877   -4216.5031    1833.3304 
   17050    305.91178   -6016.7862   -4786.0725   -4685.3581    336.76449 
   17100    305.26615   -5996.7034   -4768.5872   -4547.2165     740.2099 
   17150    312.67853   -6040.9031   -4782.9661   -4580.7391    676.19776 
   17200     294.1487   -6008.1682   -4824.7786   -4648.0813    590.83262 
   17250     312.0583   -6051.7011   -4796.2594   -4943.2612    -491.5382 
   17300    309.15996   -5985.8379   -4742.0565   -4083.0022    2203.7172 
   17350    306.11667   -5949.3184   -4717.7804   -4282.4349    1455.6896 
   17400    306.16992   -5915.8691   -4684.1169    -4113.035    1909.5591 
   17450    317.35154    -5932.697     -4655.96     -4156.32    1670.6747 
   17500    307.01602   -5927.6577   -4692.5016    -4072.499    2073.1377 
   17550    292.48687   -5890.0132   -4713.3093     -3861.41    2848.5441 
   17600    294.27238   -5872.0165   -4688.1293   -4213.2397    1587.9153 
   17650    302.32828   -5844.5392   -4628.2423   -4246.7686    1275.5551 
   17700    310.35815   -5845.2193   -4596.6174   -3915.9081    2276.1263 
   17750    311.03924   -5841.0863   -4589.7444   -3868.3296    2412.2354 
   17800    304.72723   -5840.0672   -4614.1191   -3962.2836    2179.5795 
   17850    309.04323   -5906.0817   -4662.7699   -4262.3573    1338.8822 
   17900    303.20733   -5923.7648   -4703.9314   -4497.8077     689.2275 
   17950    308.46307   -5949.5478   -4708.5701   -4483.4222    752.83969 
   18000    296.12364   -5864.7664   -4673.4313   -3808.1875     2893.165 
   18050    310.80506   -5920.6224   -4670.2226   -4170.1714    1672.0495 
   18100    299.99926   -5888.1854   -4681.2584   -4020.9645     2207.862 
   18150    312.21767   -5995.9182   -4739.8353   -4231.7421      1698.94 
   18200    303.52528    -6050.139   -4829.0265   -4518.2841    1039.0469 
   18250    295.19625   -6096.2977   -4908.6936   -5320.1008   -1375.6454 
   18300    296.51859   -6122.6388   -4929.7149   -5081.8013   -508.54002 
   18350    311.16116    -6148.082   -4896.2496   -5097.4551    -672.7822 
   18400    293.34403   -6057.8291   -4877.6767   -5089.8968   -709.61216 
   18450      304.088   -6067.3913   -4844.0149   -4652.0238    641.97163 
   18500    310.27859   -6055.0171   -4806.7353   -4554.1894    844.45188 
   18550    307.09142   -6051.6154   -4816.1559   -4533.6065    944.77644 
   18600    306.82428   -6054.1392   -4819.7545   -4915.8881    -321.4476 
   18650    307.85645   -6055.4658   -4816.9286   -4647.4853    566.57714 
   18700     312.1168   -6088.5314   -4832.8543   -5215.2523   -1278.6458 
   18750    311.00173   -6112.4961   -4861.3051   -4585.7196    921.49062 
   18800     309.0987   -6148.8829   -4905.3479   -5221.6366   -1057.5926 
   18850    292.99912   -6161.2978    -4982.533   -4686.7361    989.07303 
   18900    292.87545    -6150.351   -4972.0837   -5153.5669    -606.8357 
   18950    314.27359   -6155.4856   -4891.1316   -4793.2691    327.22834 
   19000    307.48907   -6095.7708   -4858.7115   -4814.2586     148.6399 
   19050     306.4394   -6118.1942   -4885.3578   -4808.0813    258.39396 
   19100    300.86489   -6153.9804   -4943.5709   -5114.5465    -571.7009 
   19150    299.51713   -6170.8628   -4965.8755   -5184.1559   -729.87647 
   19200    296.32845   -6106.4131   -4914.2541   -4720.9262    646.44169 
   19250    301.18341   -6031.7569   -4820.0659   -4458.4529    1209.1458 
   19300    305.55556   -5969.3787   -4740.0981   -4474.7781    887.16573 
   19350    312.17303   -5971.5022   -4715.5989   -4368.8416    1159.4721 
   19400    306.98224   -5987.6683   -4752.6481    -4074.598    2267.2344 
   19450    299.39857   -5976.2179   -4771.7075   -4538.6881    779.16045 
   19500      307.563   -6017.8149   -4780.4582   -4360.3901    1404.6056 
   19550    307.30423    -6028.024   -4791.7084   -4298.0479    1650.6806 
   19600    302.32575   -6017.4368     -4801.15   -4293.1938    1698.4822 
   19650    297.23279   -5956.5889   -4760.7917   -4480.9774    935.63107 
   19700    302.38944   -5873.4808   -4656.9379   -4144.6218    1713.0601 
   19750    318.41348    -5840.674   -4559.6647   -3850.8819    2369.9971 
   19800    313.72377   -5785.8913   -4523.7493   -3640.6024    2953.0282 
   19850    298.59598   -5752.3683   -4551.0868   -3697.3987    2854.5255 
   19900    304.68258   -5846.9294   -4621.1609   -3850.6405    2576.4329 
   19950    303.93355   -5908.2154   -4685.4604   -4387.0187    997.91643 
   20000    306.86282    -5965.936   -4731.3962   -4494.0286    793.69933 
   20050     296.2315   -5936.7094   -4744.9405   -4354.6272    1305.1126 
   20100    311.90457   -5990.4805   -4735.6573   -4329.3967    1358.4365 
   20150    300.55522   -5958.6618   -4749.4981   -4416.7612    1112.5913 
   20200    301.99931   -5962.4627   -4747.4893   -4406.4438    1140.3734 
   20250    302.98041   -5937.5655    -4718.645   -4093.2168    2091.2796 
   20300    317.95836   -5987.5396   -4708.3613   -4467.0326    806.94448 
   20350     301.9197   -5880.2224   -4665.5693   -4027.5302    2133.4474 
   20400     309.5861   -5860.2011   -4614.7052   -3964.9926    2172.4809 
   20450    311.90919   -5852.6038    -4597.762   -3998.8886    2002.4869 
   20500    311.27807   -5875.7073   -4623.4045   -4277.2348     1157.507 
   20550    306.54946   -5886.0059   -4652.7267   -4078.2668    1920.8543 
   20600    302.63122   -5909.8583   -4692.3426   -4410.2461    943.26203 
   20650    305.53072   -5952.0715   -4722.8909   -4216.8878    1691.9514 
   20700    306.88646   -5944.4892   -4709.8543   -4527.5102     609.7142 
   20750    284.20187   -5826.6297   -4683.2571   -3889.2854    2654.8482 
   20800    299.67135   -5834.1525   -4628.5447   -3926.6736    2346.8862 
   20850    312.59736   -5802.9956   -4545.3852   -3624.8584    3078.0176 
   20900    314.96075   -5801.9532   -4534.8346   -3626.0485    3038.7597 
   20950    300.57068   -5819.9736   -4610.7477   -3888.5713    2414.7822 
   21000    308.25533   -5914.3446   -4674.2026   -4341.5062    1112.4559 
   21050    306.94674   -5919.3071   -4684.4297   -4352.4703    1109.9915 
   21100    308.34898   -5914.6259   -4674.1072   -4364.6511    1034.7457 
   21150    292.85669   -5861.6208   -4683.4291    -4192.437    1641.7581 
   21200    304.42635   -5943.4756   -4718.7379   -4506.5293    709.57407 
   21250    296.55556   -5944.9728   -4751.9002   -4408.8933    1146.9315 
   21300     308.3689   -5989.8546   -4749.2557   -4578.7751    570.04558 
   21350    304.59773    -5995.339   -4769.9119   -4415.7452    1184.2471 
   21400    303.48044   -6039.0507   -4818.1185   -4559.0216    866.35697 
   21450    305.11089   -6084.5174   -4857.0258   -4741.7819    385.34749 
   21500    298.90036   -6100.9305   -4898.4244   -5007.0585   -363.24601 
   21550    298.78229   -6120.0946   -4918.0636   -4721.0235    658.85422 
   21600    309.29215   -6154.6439   -4910.3307    -5093.961   -614.01519 
   21650    300.34007   -6101.1646   -4892.8664   -4772.8605    401.27051 
   21700    300.98765   -6063.8087   -4852.9053   -4644.2588    697.66316 
   21750    300.14206   -6019.2381   -4811.7366    -4774.419    124.78094 
   21800    306.41103   -6016.5423   -4783.8201   -4695.9964    293.66106 
   21850    303.88924   -5980.6687   -4758.0919   -4567.4631    637.41623 
   21900    312.80791   -6027.1878   -4768.7303   -4526.3614     810.4227 
   21950    305.33358   -6045.7697   -4817.3822   -4875.7159   -195.05368 
   22000    307.58157   -6115.0697   -4877.6384   -4713.6633    548.29267 
   22050    300.35647   -6175.3451    -4966.981   -5378.7544   -1376.8701 
   22100    290.58455   -6176.7933   -5007.7426   -5209.6002   -674.96266 
   22150     306.2574   -6176.8794   -4944.7752    -4894.894    166.79069 
   22200    310.29281   -6104.9514   -4856.6124   -4675.4102     605.8962 
   22250    301.56877   -6028.3319   -4815.0906   -4451.3924    1216.1182 
   22300    301.75601    -6029.374   -4815.3794   -4751.8102    212.55993 
   22350    299.54629   -6004.5018   -4799.3972    -4628.642    570.96369 
   22400    302.27195   -5956.1097   -4740.0394   -4149.6438    1974.1394 
   22450    315.49375   -5955.7102   -4686.4473   -4244.9692    1476.1954 
   22500    307.71157   -5936.6782   -4698.7238   -4502.1096    657.43006 
   22550     300.6458   -5944.9362    -4735.408   -4358.7881    1259.3256 
   22600    307.15457   -5953.9525    -4718.239   -4803.0604   -283.62221 
   22650    311.60061   -5899.3096   -4645.7092   -4069.8065    1925.6783 
   22700     312.1519   -5812.0177   -4556.1994   -3681.5807     2924.512 
   22750    316.08487    -5814.633    -4542.992   -3595.1237    3169.4411 
   22800    304.23667   -5865.6553   -4641.6808   -3752.4336     2973.426 
   22850    303.61382   -5970.1566   -4748.6879    -4553.676    652.07218 
   22900    302.96538   -6035.3889   -4816.5289   -4991.2532   -584.23572 
   22950    293.63059   -6024.0173    -4842.712    -4697.075    486.97481 
   23000    313.38796   -6099.8514   -4839.0604   -5002.0788   -545.09391 
   23050    307.49436   -6111.2995   -4874.2189   -5077.1427   -678.52755 
   23100    291.87914   -6102.5951   -4928.3361   -5081.3629   -511.68439 
   23150    294.11984   -6140.2726   -4956.9991   -5398.3413    -1475.741 
   23200    302.87107   -6164.3482   -4945.8676    -5307.524   -1209.2912 
   23250    310.19949   -6153.2982   -4905.3347   -4956.5616   -171.29033 
   23300    315.67691   -6170.5738   -4900.5741   -5255.5606   -1186.9886 
   23350    311.41443   -6191.6749   -4938.8236    -4904.327    115.34807 
   23400    297.03911   -6167.5827   -4972.5647   -5419.6935     -1495.09 
   23450    299.60613   -6166.4548   -4961.1094   -5119.3303   -529.05217 
   23500    306.92353    -6154.925   -4920.1409   -4915.0381    17.062482 
   23550    309.21956    -6099.503   -4855.4818   -4879.2654   -79.526431 
   23600    315.50734   -6085.8901   -4816.5725   -4508.5268    1030.0297 
   23650    297.10929    -6028.003   -4832.7026   -4454.6042     1264.269 
   23700    293.46694   -6024.4484   -4843.8016   -4664.2454    600.39208 
   23750    298.93639   -6000.8633   -4798.2123   -4613.3981    617.97375 
   23800    317.57987   -5997.3595    -4719.704   -4397.1011    1078.7053 
   23850    302.54176   -5913.2092   -4696.0535   -4002.0879    2320.4518 
   23900    299.59367   -5919.4961   -4714.2008   -4237.8265    1592.8798 
   23950    295.65763   -5887.6671   -4698.2069    -3933.034    2558.5521 
   24000    310.47412   -5901.1326   -4652.0642   -3956.1598     2326.935 
   24050    306.30681   -5857.3471   -4625.0442   -3765.1953    2875.1255 
   24100    304.40318   -5838.1752   -4613.5308   -3915.1051    2335.3655 
   24150    306.60784   -5842.7058   -4609.1918   -3949.9477    2204.3519 
   24200    308.69659   -5896.0753   -4654.1581   -4117.6468    1793.9631 
   24250    306.53696   -5971.7664   -4738.5375   -4588.1008    503.02396 
   24300    303.70603   -6038.9685   -4817.1288   -5104.7403   -961.70306 
   24350    293.46617    -6041.438   -4860.7943   -4880.8158   -66.946905 
   24400    309.75892   -6104.5916   -4858.4005   -5055.4381   -658.84601 
   24450    305.78098     -6086.59   -4856.4025   -5025.1403   -564.21783 
   24500    312.02583   -6133.6393   -4878.3282    -4846.189    107.46579 
   24550    306.56016   -6145.6806   -4912.3585   -5134.3952   -742.43684 
   24600    301.07379   -6145.3568   -4934.1069    -4931.682    8.1079711 
   24650    294.83752   -6148.1958    -4962.035   -5050.9759   -297.39687 
   24700    303.83563   -6196.3263   -4973.9652   -4841.3376    443.47417 
   24750    307.03523   -6198.3102   -4963.0768    -4745.314     728.1457 
   24800    304.06824   -6168.0719   -4944.7749   -5026.8862   -274.56008 
   24850    308.40259   -6156.5223   -4915.7878   -4711.7782    682.15851 
   24900    302.76645   -6133.3691   -4915.3094   -4987.2448   -240.53436 
   24950    301.60332   -6134.3016   -4920.9213   -5082.2137   -539.32262 
   25000     308.5537   -6126.9394    -4885.597   -4764.1249    406.17308 
   25050    313.79982   -6092.6047   -4830.1566   -4686.4232    480.60976 
   25100    302.17549   -6021.7327   -4806.0505     -4507.05    999.78507 
   25150     307.3763   -6019.0387   -4782.4331   -4783.1995   -2.5627966 
   25200    302.04481   -5974.0633   -4758.9068    -4375.524    1281.9388 
   25250    319.70434   -6029.4489   -4743.2463   -4486.5528    858.32077 
   25300    308.04807   -6029.6796   -4790.3714   -4741.9203    162.00869 
   25350    286.73814   -6048.2215   -4894.6453   -4814.9567    266.45932 
   25400    286.48824   -6121.6209   -4969.0501   -4835.2303    447.46062 
   25450    295.02206   -6153.6132   -4966.7099   -5053.2873   -289.49374 
   25500    296.76756   -6101.8565    -4907.931   -4844.0147    213.72045 
   25550    304.87179   -6042.2697     -4815.74   -4667.3827    496.07084 
   25600    318.39609   -6011.6027   -4730.6634   -4468.5251    876.52674 
   25650    311.73622    -5959.436     -4705.29   -4196.8775    1700.0076 
   25700    319.44024   -6014.5526   -4729.4126   -4469.9722     867.5056 
   25750    289.66349   -5933.7861    -4768.441    -4729.968    128.64418 
   25800    297.30289   -5956.9284   -4760.8492   -4589.0098     574.5889 
   25850    307.36654   -5947.2007   -4710.6344   -4182.7111    1765.2469 
   25900    301.59789   -5874.3825    -4661.024   -3730.3293    3112.0166 
   25950     311.0284   -5909.9533   -4658.6549   -4001.3359    2197.9148 
   26000    299.77832   -5888.7841   -4682.7459   -4004.0506    2269.3918 
   26050    299.31149   -5907.1683   -4703.0083   -4170.7309    1779.8058 
   26100    311.77281   -5965.7042    -4711.411   -4654.8623    189.08499 
   26150    296.28883   -5943.9775    -4751.978   -4471.3189    938.45572 
   26200    303.13303   -6016.4691   -4796.9346   -5008.5294   -707.52164 
   26250      299.079   -5998.1166   -4794.8919   -4808.3895    -45.13282 
   26300    315.31183    -6039.485    -4770.954     -4646.85    414.97348 
   26350    310.35314   -6045.8075   -4797.2258   -4825.2237   -93.618109 
   26400    298.74703   -6061.3129   -4859.4238   -4918.8487   -198.70258 
   26450    294.06672   -6077.8702   -4894.8104   -5312.1694    -1395.547 
   26500    306.67755   -6093.1037   -4859.3093   -4948.7014   -298.90544 
   26550    309.20436   -6077.4139   -4833.4539   -4925.4112   -307.48293 
   26600    307.56373   -6089.1439   -4851.7843   -5056.4195    -684.2504 
   26650    309.49428   -6110.4788   -4865.3524   -4994.6398   -432.30569 
   26700    301.84614   -6101.6705   -4887.3134   -5275.8929   -1299.3156 
   26750    309.48659   -6146.8668   -4901.7713   -5284.7984   -1280.7495 
   26800    299.23268    -6084.162   -4880.3191   -4922.4151    -140.7588 
   26850    315.37632   -6102.8716   -4834.0811   -5103.5515   -901.04335 
   26900    307.11853   -6074.2384   -4838.6699   -4669.3014    566.32697 
   26950    304.31438   -6073.8461   -4849.5589   -4424.5381     1421.166 
   27000    314.91582   -6164.2195   -4897.2817   -4957.1951   -200.33574 
   27050    302.48536   -6209.2128    -4992.284   -4948.1632    147.52912 
   27100    286.63063   -6190.1866   -5037.0429   -5469.5151   -1446.0817 
   27150    303.94601   -6210.2824   -4987.4772   -4920.8621    222.74449 
   27200    306.78314   -6146.0613    -4911.842   -5216.5637   -1018.9152 
   27250    309.61136   -6122.3165   -4876.7191   -4594.7231    942.92577 
   27300    313.37119   -6171.4478   -4910.7242   -4903.5923    23.847493 
   27350    303.37193   -6198.7587   -4978.2631   -5458.1808   -1604.7279 
   27400    301.87292   -6221.7357   -5007.2708   -4926.7939    269.09498 
   27450    300.50669   -6182.5998   -4973.6314   -5513.3093   -1804.5515 
   27500    307.80761   -6155.9515   -4917.6107   -5176.7361   -866.45206 
   27550    310.45526    -6133.637   -4884.6445   -4826.2907    195.12086 
   27600    300.29614   -6093.8609   -4885.7395   -5091.6764   -688.60302 
   27650    309.88781   -6137.8581   -4891.1485   -5029.0535   -461.12073 
   27700    305.02496    -6134.959   -4907.8131   -4901.4037    21.431463 
   27750    297.20947   -6108.4526   -4912.7492   -4661.5055    840.09798 
   27800    309.91899   -6144.1627   -4897.3277   -5108.5249   -706.19234 
   27850    313.02108    -6171.011   -4911.6959   -5080.5867   -564.72982 
   27900    311.74306    -6206.043   -4951.8695   -5062.5457   -370.07422 
   27950    301.28709   -6230.7417   -5018.6336   -4553.8609    1554.0869 
   28000    289.22814   -6200.1468   -5036.5531   -5082.6709   -154.20652 
   28050    298.53751   -6167.6655   -4966.6192   -5219.1859   -844.52145 
   28100    301.89956   -6069.6661    -4855.094   -4383.6256    1576.4757 
   28150    325.39888   -6040.4068   -4731.2946   -4570.4806    537.72285 
   28200    308.00588   -5898.2401   -4659.1016   -3810.9871    2835.8887 
   28250    301.87086   -5837.0222   -4622.5656   -3933.7669    2303.1753 
   28300    309.95729   -5873.6074   -4626.6182   -3941.5471    2290.7111 
   28350    294.72383   -5804.1845    -4618.481   -4018.6503     2005.688 
   28400    314.83196   -5875.9516   -4609.3511   -4017.5747    1978.7562 
   28450    319.81868   -5903.3308   -4616.6683   -4140.2355    1593.0753 
   28500     301.3486    -5870.233   -4657.8775   -3935.4433    2415.6439 
   28550    311.66687   -5946.3677   -4692.5007     -4561.33    438.60312 
   28600    305.45613    -5964.876   -4735.9954   -4506.6371    766.91821 
   28650    289.96129   -5937.8755   -4771.3322   -4220.2552    1842.6676 
   28700    311.61493   -6013.8467   -4760.1887   -4756.6969    11.675818 
   28750    311.92532   -6027.5254   -4772.6187   -4520.8383    841.89211 
   28800    306.85366   -6063.0024   -4828.4995   -4648.6764    601.28461 
   28850    296.00202   -6064.0515   -4873.2058   -4673.7499     666.9319 
   28900    306.92449    -6116.663    -4881.875    -4862.177    65.865597 
   28950    300.29641   -6096.1604    -4888.038   -4624.9704    879.63394 
   29000    311.99515   -6123.4702   -4868.2825   -5071.1316     -678.278 
   29050    297.85751   -6049.3598   -4851.0492   -4601.3603    834.89896 
   29100    299.32853   -6021.4022   -4817.1736   -4394.2955    1414.0016 
   29150    299.63142    -5979.414   -4773.9669   -4442.9186    1106.9448 
   29200     303.7919   -5956.3105   -4734.1253   -4428.2738     1022.693 
   29250    305.47024    -5937.182   -4708.2447   -4058.6022    2172.2464 
   29300    304.69885    -5911.727   -4685.8931   -4159.9784    1758.5306 
   29350    309.94015   -5903.9942    -4657.074   -4194.9144    1545.3492 
   29400    304.95079   -5860.8723   -4634.0247   -3870.5279    2552.9476 
   29450    296.41859   -5796.2427   -4603.7211   -4004.4986    2003.6542 
   29500    312.87709   -5832.3948    -4573.659   -4001.8518     1911.984 
   29550    314.06473   -5842.9234   -4579.4096   -3975.2452    2020.1788 
   29600    311.09482   -5907.3914   -4655.8258   -4289.4685    1225.0098 
   29650    292.45446   -5920.6811   -4744.1076   -4455.7195    964.29972 
   29700    287.65362   -5913.9005   -4756.6412   -4255.0265    1677.2776 
   29750    312.75773   -5935.2432   -4676.9876   -4449.0934    762.02269 
   29800    310.55526   -5819.0536   -4569.6587   -3859.8161    2373.5408 
   29850    306.20772   -5800.8118   -4568.9075   -3784.8626    2621.6555 
   29900    302.92252    -5832.555   -4613.8674   -4269.5766    1151.2247 
   29950    304.96488   -5907.3143   -4680.4101   -4158.1091    1746.4476 
   30000    298.09706     -5931.13   -4731.8557   -4294.8911    1461.1031 
   30050    303.70744   -5998.2789   -4776.4335   -4406.8045    1235.9493 
   30100    294.82283   -5991.8261   -4805.7244   -4645.3012    536.41602 
   30150    309.14655   -6047.4552   -4803.7278   -4356.6432    1494.9419 
   30200    303.82361   -6025.9226   -4803.6098   -4751.1366    175.45761 
   30250    308.85157   -6048.3313   -4805.7905   -4790.0324    52.691488 
   30300    296.44178   -6020.3041   -4827.6891   -4744.8504    276.99251 
   30350    301.17368   -6030.4408    -4818.789   -4942.5778   -413.91953 
   30400    300.40443   -5978.7378   -4770.1808   -4325.5924    1486.5952 
   30450    313.67586    -5967.884   -4705.9346   -4716.8779    -36.59172 
   30500    309.21076    -5928.421   -4684.4353   -4406.4352    929.56467 
   30550    303.43284   -5928.5972   -4707.8565   -4137.4397    1907.3352 
   30600    290.13635     -5928.65   -4761.4025   -4377.3546    1284.1628 
   30650    305.52622   -6035.3726   -4806.2101   -4626.3164    601.52077 
   30700    288.24849   -5996.9483   -4837.2958   -4562.4406      919.049 
   30750    292.04564   -5992.6308    -4817.702   -4394.1976    1416.0957 
   30800    303.63163   -5978.8379   -4757.2975   -4435.7059     1075.324 
   30850    298.57068   -5884.2181   -4683.0384   -4232.7288    1505.7258 
   30900     313.8584   -5884.2581   -4621.5744   -4062.9038    1868.0586 
   30950    311.84404   -5874.2176   -4619.6379   -3691.4794     3103.536 
   31000    294.61132   -5848.5894   -4663.3386   -3842.0881     2746.062 
   31050    312.90239   -5965.9128   -4707.0751   -4741.0534   -113.61495 
   31100    313.54454   -5980.9093   -4719.4882   -4442.0026    927.84455 
   31150    304.26423   -5973.9557   -4749.8703   -4469.7473     936.6632 
   31200    303.59938     -6011.17   -4789.7594   -4548.7546    805.86131 
   31250    310.24605   -6083.7162   -4835.5654    -5106.748    -906.7688 
   31300    302.33347   -6108.9863   -4892.6685   -4692.6506    668.81131 
   31350    304.57049   -6138.0173   -4912.6998    -5055.624   -477.90393 
   31400    305.91309   -6127.0938   -4896.3749   -4838.6613    192.98037 
   31450    320.45914   -6178.6916   -4889.4524   -5126.5512   -792.80068 
   31500    300.80943   -6157.1406   -4946.9541   -5328.1253   -1274.5435 
   31550    294.83519   -6190.1504    -5003.999   -5489.1545   -1622.2422 
   31600    291.97426   -6175.9211   -5001.2795   -5379.8834   -1265.9593 
   31650    313.16785   -6209.2485   -4949.3429   -5035.1477   -286.91036 
   31700    307.60944    -6168.293   -4930.7495   -4725.3557    686.78692 
   31750    302.54977   -6157.3889   -4940.2009   -5319.3129    -1267.658 
   31800    316.75354   -6205.0573   -4930.7262   -5172.6044   -808.78192 
   31850    315.70147   -6221.7423   -4951.6437   -5208.7898   -859.83408 
   31900    299.85987   -6232.8858   -5026.5196    -5109.708   -278.16178 
   31950    293.47072   -6228.6888   -5048.0267   -5246.5122   -663.68716 
   32000    298.30683   -6184.5169   -4984.3987   -5419.5601    -1455.074 
   32050    306.22146   -6118.4462   -4886.4867   -4759.1769    425.69292 
   32100    315.44029   -6056.1799    -4787.132   -4693.4869    313.12643 
   32150    319.38572   -6067.7382   -4782.8175   -4502.4817    937.37476 
   32200    307.24629   -6074.9165   -4838.8339   -4882.8326   -147.12101 
   32250    300.33969   -6083.8155   -4875.5189   -4912.7488   -124.48777 
   32300    301.97374    -6110.439   -4895.5684   -4911.5998   -53.605009 
   32350    307.99906   -6147.5593   -4908.4483   -4954.3748   -153.56708 
   32400    302.25212   -6147.6997   -4931.7092   -5264.1344   -1111.5492 
   32450    299.30411   -6104.7034   -4900.5731   -4762.2819     462.4119 
   32500    299.63953   -6061.8318    -4856.352   -4666.8559    633.62887 
   32550    306.97106   -6060.3455   -4825.3702   -4564.7858    871.33085 
   32600    301.32941   -5999.1351   -4786.8568   -4509.9331    925.96551 
   32650    316.18156   -5989.0161   -4716.9861    -4191.753    1756.2516 
   32700    304.09988   -5910.1009   -4686.6767   -4010.2513    2261.8018 
   32750     290.4912     -5821.23   -4652.5548   -3645.3491    3367.8509 
   32800    302.16162   -5819.8795   -4604.2531   -3735.5922    2904.5909 
   32850     305.4497   -5822.1482   -4593.2936   -3978.1406    2056.9221 
   32900    303.87764   -5838.4683   -4615.9381   -3730.0966    2962.0384 
   32950    304.20256   -5857.0654   -4633.2281   -4152.4808    1607.5021 
   33000    317.13721   -5916.8249   -4640.9502   -4006.9179    2120.0497 
   33050    309.36847   -5922.0646   -4677.4444   -3983.1444    2321.5702 
   33100    303.56473   -5975.6343   -4754.3631   -4759.0444   -15.653245 
   33150    305.35677    -6041.934   -4813.4532   -4394.9239      1399.46 
   33200    291.82763   -6004.8404   -4830.7886   -4238.9068    1979.1089 
   33250    306.95989   -6065.7344   -4830.8041   -4850.6006   -66.194734 
   33300    307.34492   -6060.0173    -4823.538    -4783.764    132.99449 
   33350    297.72153    -5982.418   -4784.6545   -4389.1749    1322.3877 
   33400    302.13294   -5918.8016   -4703.2906   -4174.2621    1768.9425 
   33450     324.8396   -5924.6706   -4617.8084   -4300.7846    1060.0505 
   33500    311.60312   -5854.2169   -4600.6065   -3980.7837    2072.5366 
   33550    311.24425   -5909.7492   -4657.5825    -4348.301    1034.1621 
   33600    300.52792   -5921.1928    -4712.139   -4484.2665    761.94988 
   33650     298.3111   -5934.0645   -4733.9291   -4489.7473    816.48446 
   33700    310.04315   -5991.8923   -4744.5577   -4365.8615     1266.268 
   33750    308.41213    -6044.578   -4803.8051   -4426.7579     1260.754 
   33800    311.41925   -6137.2914   -4884.4206   -5056.5142   -575.43935 
   33850     302.7929   -6167.2383   -4949.0722   -5274.9538   -1089.6687 
   33900    296.64845   -6174.2463   -4980.7999   -5208.5424   -761.51523 
   33950    306.44789     -6205.62   -4972.7495    -5259.268   -958.04809 
   34000    306.17915   -6208.7174    -4976.928   -4822.0361    517.92104 
   34050    301.02537   -6219.0719   -5008.0168   -5714.1933   -2361.2825 
   34100    298.37378   -6206.5866    -5006.199    -5090.249   -281.04259 
   34150    304.47625   -6179.4767   -4954.5383   -5127.9399   -579.81267 
   34200    304.38211   -6123.3521   -4898.7925   -4726.3661    576.55171 
   34250    303.27572   -6100.9238   -4880.8153   -4561.9229    1066.2983 
   34300    297.79597   -6074.8027   -4876.7398     -4916.73   -133.71751 
   34350    294.41106   -6045.1771    -4860.732   -4481.6617    1267.5187 
   34400    312.16002   -6076.5294   -4820.6784    -4899.196   -262.54358 
   34450    309.89266   -6016.9837   -4770.2546   -4592.5801    594.10025 
   34500    313.90152   -6007.6152    -4744.758   -4409.2571    1121.8334 
   34550    305.44159   -5971.3449   -4742.5229   -4395.7318     1159.585 
   34600    314.07579   -6003.9522    -4740.394   -4564.1201    589.41687 
   34650    307.25728   -6002.4422   -4766.3155   -4617.6596    497.06894 
   34700    309.49412   -6048.4167   -4803.2909   -4591.5583    707.98255 
   34750     301.6597   -6079.5098   -4865.9026   -5327.4317    -1543.241 
   34800    303.01121    -6122.368   -4903.3237   -5040.5081   -458.71134 
   34850    298.09389   -6113.2876   -4914.0261   -5042.0051    -427.9307 
   34900    311.32129   -6178.9728   -4926.4961   -5448.9439   -1746.9384 
   34950    313.18845    -6226.746   -4966.7576   -5665.6876   -2337.0519 
   35000    305.26862   -6250.4202    -5022.294    -5171.522   -498.98201 
   35050    290.21496    -6200.534   -5032.9702    -4973.558    198.66006 
   35100    312.26612   -6231.2075   -4974.9297    -5413.751   -1467.3117 
   35150    305.51896   -6194.4954   -4965.3621    -5165.962   -670.75723 
   35200    297.08515   -6193.8369   -4998.6336   -5256.5335   -862.35426 
   35250    299.18695   -6204.5457   -5000.8867   -5229.8954   -765.74938 
   35300    289.29134   -6141.0019    -4977.154   -5030.7252   -179.12909 
   35350    308.24289    -6138.735   -4898.6431   -5055.9702   -526.06374 
   35400    314.56232   -6104.3271   -4838.8114   -4567.4021    907.52674 
   35450    303.44638   -6063.9095   -4843.1144   -4879.7084   -122.36152 
   35500    299.85152   -6066.1634   -4859.8308   -5012.9541   -512.00711 
   35550    297.08046   -6019.0546   -4823.8703   -4455.6447    1231.2567 
   35600    313.29023   -6027.0219    -4766.624   -4351.4845    1388.1257 
   35650    301.59176   -5961.9529   -4748.6191   -3983.8311    2557.2649 
   35700    287.93381    -5906.281   -4747.8945   -4456.4054    974.66879 
   35750    302.07996   -5925.4555   -4710.1576   -4058.4886    2179.0227 
   35800    305.97456    -5905.897   -4674.9308    -3940.068    2457.2023 
   35850    301.09715   -5894.3329   -4682.9889   -3845.9419    2798.8815 
   35900    301.00375   -5923.1536   -4712.1854   -4136.7053    1924.2656 
   35950    298.40773   -5902.0084   -4701.4843    -4213.625    1631.2828 
   36000    303.90642   -5874.2634   -4651.6175   -3563.3292    3638.9712 
   36050    310.09431   -5860.8411   -4613.3007   -3779.3038    2788.6826 
   36100    296.62673   -5812.7619   -4619.4029   -3778.4181    2812.0485 
   36150    300.32596   -5844.2565   -4636.0151   -3946.1302    2306.8072 
   36200    311.97179   -5892.9251   -4637.8314   -4061.0962    1928.4622 
   36250    301.01404   -5849.1363   -4638.1268   -3870.3822    2567.1511 
   36300    312.48766   -5891.2728   -4634.1037    -4384.118    835.89138 
   36350    297.03175   -5828.8399   -4633.8515    -3900.973    2450.5674 
   36400    305.92205   -5833.4122   -4602.6572    -4138.019    1553.6369 
   36450    315.60846   -5833.9894    -4564.265   -4292.3028    909.37546 
   36500    314.30645   -5825.6028   -4561.1165   -4147.6987    1382.3687 
   36550    291.73794   -5782.4654   -4608.7745   -3990.4666    2067.4713 
   36600    314.24437   -5895.5365   -4631.2999   -4041.9661    1970.5888 
   36650    315.82836   -5927.5971    -4656.988    -4403.647    847.11066 
   36700    305.61482   -5962.2534   -4732.7345   -4306.8911    1423.9166 
   36750    298.58893    -5993.651   -4792.3978   -4620.1617    575.91556 
   36800    293.29703   -5983.3802   -4803.4169   -4613.7054    634.34912 
   36850    307.25685    -6015.828    -4779.703    -4501.102      931.574 
   36900    296.58875    -5912.682   -4719.4758   -4035.7094    2286.3485 
   36950    310.09452   -5884.7134   -4637.1721   -3753.3866    2955.1637 
   37000    313.54291    -5865.852   -4604.4375     -4000.53      2019.32 
   37050    315.18083   -5916.6222   -4648.6182   -4248.5659    1337.6775 
   37100    306.57251   -5948.5641   -4715.1923   -4269.7714    1489.3792 
   37150    294.91975   -5987.9985   -4801.5068   -4571.1486    770.26195 
   37200    288.77012    -5994.927    -4833.176    -4362.709    1573.1269 
   37250    306.35097   -5997.8659   -4765.3853    -4399.758    1222.5689 
   37300    314.09171   -5947.9565   -4684.3342   -4023.0423    2211.1993 
   37350    312.59003    -5919.696   -4662.1151   -4280.9085     1274.662 
   37400    298.66876   -5892.5725   -4690.9982   -4163.2085    1764.8001 
   37450    297.97147    -5923.674    -4724.905   -4456.6002    897.14616 
   37500    299.98822   -5934.3684   -4727.4858   -4264.5342    1547.9978 
   37550    298.21446   -5907.4755   -4707.7289   -3808.8786    3005.5365 
   37600    314.04728   -5948.4543   -4685.0107   -4454.2646    771.55889 
   37650    314.61677   -5973.5055   -4707.7708    -4566.898    471.04405 
   37700    293.28373   -5918.4799   -4738.5702   -4150.0795    1967.7696 
   37750    309.14695   -5976.8905   -4733.1615    -4534.237    665.15501 
   37800     301.2659   -5938.9863   -4726.9635   -4328.3045    1333.0188 
   37850    300.08555   -5881.3086   -4674.0344   -4105.1598    1902.1784 
   37900    309.58885   -5852.5002   -4606.9933   -3632.9896    3256.8313 
   37950     312.0922   -5846.5517   -4590.9736   -3968.9947    2079.7459 
   38000    304.06861   -5859.8738   -4636.5754   -4023.6874    2049.3483 
   38050     296.5494   -5864.6741   -4671.6262   -4078.5808    1982.9995 
   38100     300.8343   -5877.2739   -4666.9874    -4166.726    1672.7524 
   38150    301.59339    -5857.737   -4644.3966   -3914.0176    2442.2097 
   38200     298.3185   -5832.3998   -4632.2346   -4017.5928    2055.2126 
   38250    302.30956   -5837.9308   -4621.7092   -3699.1784    3084.7185 
   38300    307.69342   -5862.1411   -4624.2597   -3960.4488    2219.6223 
   38350     299.0591   -5806.0085   -4602.8639   -3755.8762    2832.1209 
   38400    312.16916   -5823.5298   -4567.6421   -4260.0209    1028.6104 
   38450    319.15991   -5844.4552   -4560.4429   -4300.7183    868.45591 
   38500    303.30514   -5809.5943   -4589.3675   -3982.3787    2029.6228 
   38550      314.717   -5869.3787   -4603.2408   -3960.8798    2147.8986 
   38600    312.30953   -5896.9204    -4640.468   -4346.2511    983.78959 
   38650    302.01385   -5924.4767   -4709.4447   -4122.7706    1961.6956 
   38700    307.86744   -6017.0977   -4778.5162   -4755.4375    77.169357 
   38750    302.86291   -6058.8609   -4840.4131   -4929.6966    -298.5421 
   38800    300.30638   -6106.4583   -4898.2957   -5002.2083   -347.45834 
   38850    298.76875    -6148.324   -4946.3475   -4939.1607    24.030773 
   38900    289.39219   -6141.4081   -4977.1543   -4918.7182    195.39627 
   38950    304.21938    -6175.327    -4951.422   -5359.7392   -1365.3132 
   39000     305.6821   -6103.1628   -4873.3732   -4801.8868    239.03321 
   39050     304.1173   -6014.3594   -4790.8651   -4547.2377    814.63082 
   39100    308.78046   -5996.7915   -4754.5369   -4547.0984    693.62389 
   39150    305.39673   -6001.7847   -4773.1431   -4490.4213    945.35292 
   39200    301.39512   -6024.2922   -4811.7495   -4726.6071    284.69539 
   39250    303.60598   -6063.3696   -4841.9324   -4551.7917    970.16011 
   39300    302.77836   -6086.7794   -4868.6718   -5246.3182   -1262.7576 
   39350    302.44924   -6079.9099   -4863.1263   -5228.2732   -1220.9621 
   39400    307.79354    -6038.806   -4800.5218   -4553.7278    825.21893 
   39450    303.32914   -5984.7893   -4764.4659   -4467.4522    993.14145 
   39500    308.95392   -6010.2633   -4767.3108    -4503.032    883.68427 
   39550    301.51248    -6040.058   -4827.0431   -4649.8592    592.46014 
   39600    306.79632   -6152.0406   -4917.7683   -5083.8621   -555.37697 
   39650    289.64755   -6153.7432   -4988.4622   -5319.5119   -1106.9496 
   39700    307.43198   -6208.0093   -4971.1797    -5266.565   -987.69655 
   39750    305.41403   -6122.1374   -4893.4262    -4886.914    21.775422 
   39800     313.5699   -6088.3542   -4826.8312   -4829.2543   -8.1022933 
   39850    295.21179   -6002.0905    -4814.424   -4428.3324    1290.9962 
   39900    311.23732   -6043.1295   -4790.9907   -4713.9881    257.47776 
   39950    312.83333   -6072.7288    -4814.169   -5109.2226   -986.58739 
   40000    299.58742   -6063.3849   -4858.1148   -5256.5163   -1332.1577 
   40050    295.73398   -6048.0109   -4858.2436   -4798.8657    198.54529 
   40100     305.9051   -6072.1226   -4841.4358   -4761.4315    267.51487 
   40150    308.33746   -6072.4789   -4832.0064   -4984.1131   -508.60776 
   40200    293.24486   -5995.7046   -4815.9512   -4423.3125    1312.8884 
   40250    302.37986    -5978.517   -4762.0126   -4654.4079     359.8037 
   40300    311.87596   -5961.3817   -4706.6736   -4211.5603    1655.5384 
   40350    320.73772   -5971.5878   -4681.2278    -4778.574   -325.50199 
   40400    306.30161    -5907.344   -4675.0619   -4398.6836    924.14204 
   40450    309.48461   -5934.7989   -4689.7113   -4520.6969     565.1432 
   40500    316.70373   -5990.8993   -4716.7685   -4268.7004    1498.2306 
   40550    296.17638   -5977.7648   -4786.2176   -4756.7684    98.471006 
   40600    303.44065   -6063.3835   -4842.6114   -5028.5144   -621.61451 
   40650    309.34481   -6121.4071    -4876.882   -5028.6602   -507.50928 
   40700    310.97709   -6186.0128   -4934.9209   -5251.9544    -1060.083 
   40750    299.12743   -6196.4013   -4992.9818   -5452.8803   -1537.7889 
   40800    307.36024   -6252.0822   -5015.5413    -5259.677   -816.33045 
   40850    297.79705   -6226.8027   -5028.7354   -5561.5127   -1781.4776 
   40900    295.29579   -6194.3483   -5006.3438   -5545.2699   -1802.0376 
   40950    312.98678   -6216.3999   -4957.2228   -5439.1581   -1611.4744 
   41000     304.5763   -6162.0299    -4936.689    -5170.341   -781.27542 
   41050    317.63587   -6181.5637   -4903.6829   -5412.7693   -1702.2609 
   41100    304.00633   -6106.7262   -4883.6783   -4721.3289    542.85685 
   41150    314.53499   -6143.4171   -4878.0115   -5337.5941   -1536.7325 
   41200    296.63584   -6101.6248   -4908.2292   -4757.5576      503.809 
   41250     321.5027   -6240.1797   -4946.7422   -5411.6186   -1554.4335 
   41300     296.9579   -6231.7085   -5037.0172   -5544.1449   -1695.7118 
   41350    294.34553   -6256.4426   -5072.2611   -5508.8524    -1459.855 
   41400     302.2427   -6241.0262   -5025.0736   -5215.2374   -635.86151 
   41450    319.20114   -6236.4069   -4952.2289   -5283.7884   -1108.6544 
   41500    314.98472   -6199.2991    -4932.084   -5182.7784    -838.2611 
   41550     299.2062   -6153.3654   -4949.6289   -5062.0981   -376.06964 
   41600    292.60156    -6112.312   -4935.1467   -4862.2271    243.82543 
   41650     297.2321   -6084.2014    -4888.407   -5037.4864   -498.48531 
   41700    301.74655   -6039.9465     -4825.99   -4689.9085    455.02324 
   41750    303.59739   -5962.3468   -4740.9442   -4507.8275    779.48545 
   41800    306.69166   -5915.2135   -4681.3623   -4240.3974    1474.4792 
   41850    318.43231   -5972.3783   -4691.2932   -4360.6538    1105.5779 
   41900    301.53393   -5981.0267   -4767.9255   -4297.9068    1571.6282 
   41950    302.20043   -6034.1196   -4818.3371   -4861.9801   -145.93179 
   42000    299.27005   -6024.8638   -4820.8705   -4521.4468    1001.1999 
   42050    301.36466    -6008.246   -4795.8259   -4506.0744    968.85835 
   42100     296.6124   -5955.1728   -4761.8714   -4432.0056    1102.9911 
   42150    303.51636   -5958.1285   -4737.0519   -4550.9419    622.30632 
   42200    302.36154   -5946.2961   -4729.8653   -4189.5955    1806.5307 
   42250    296.37894   -5912.9127   -4720.5506   -4218.9634    1677.1858 
   42300    301.68302   -5896.7828   -4683.0819   -3888.2005    2657.8898 
   42350     310.0902   -5917.6765   -4670.1526   -3929.7352    2475.7757 
   42400    300.86308   -5888.2309   -4677.8286   -3981.6031    2328.0088 
   42450     301.7481   -5915.7054   -4701.7427   -4172.8457    1768.5029 
   42500    303.01089   -5937.9905   -4718.9474   -4185.3521    1784.2128 
   42550    311.89227   -5968.9402   -4714.1664   -4310.3686    1350.2015 
   42600    319.25943   -6022.1544   -4737.7418    -4758.782   -70.353297 
   42650    313.18075    -6069.442   -4809.4846   -4990.0746   -603.84913 
   42700    298.89239    -6136.872    -4934.398   -5404.7366   -1572.6977 
   42750    310.10284   -6244.1791   -4996.6043   -5675.5105   -2270.0969 
   42800    304.12755   -6242.3169   -5018.7814   -5644.0864   -2090.8679 
   42850    299.97035   -6185.7627    -4978.952   -5230.9494   -842.61793 
   42900    315.99579   -6192.1977   -4920.9151   -4991.5677   -236.24507 
   42950    304.55416   -6161.6891   -4936.4373   -5194.5467   -863.05502 
   43000    305.16936   -6201.6727   -4973.9459   -5618.7526   -2156.0769 
   43050    299.07527   -6189.4054   -4986.1957   -5543.4754   -1863.4077 
   43100    302.30294   -6189.9896   -4973.7946    -5573.594   -2005.5834 
   43150     316.1731   -6233.3043   -4961.3084    -5851.535   -2976.7014 
   43200      295.612   -6207.4068   -5018.1301   -5439.1211   -1407.6914 
   43250    298.78803   -6225.3994   -5023.3453   -5920.5271   -2999.9576 
   43300    313.89309    -6262.445   -4999.6217   -5375.4554   -1256.6965 
   43350     306.7024   -6252.9566   -5019.0622   -5633.4349   -2054.3128 
   43400    302.71359   -6259.9299   -5042.0829   -5589.3399   -1829.8943 
   43450    304.03981   -6265.3527   -5042.1702   -5607.4905   -1890.2935 
   43500    305.97525   -6254.6015   -5023.6325   -5461.0149   -1462.5005 
   43550    298.28011   -6202.4955   -5002.4848   -5219.4843   -725.59361 
   43600    319.09312   -6260.7499   -4977.0064   -5670.8286   -2319.9724 
   43650    313.81788   -6270.2595   -5007.7388   -5500.5383   -1647.8018 
   43700    290.92383   -6216.7066   -5046.2909   -5160.4414   -381.69145 
   43750    301.17242   -6255.0499   -5043.4031   -5784.8791   -2479.3153 
   43800    306.10054   -6272.6868   -5041.2137   -5410.6704   -1235.3731 
   43850    300.28845   -6251.6729   -5043.5825   -5411.3905   -1229.8603 
   43900    299.41879   -6230.6242   -5026.0325   -5190.7767   -550.86448 
   43950    302.70561   -6190.5269    -4972.712   -4838.6252    448.35353 
   44000    307.71612    -6147.332   -4909.3592   -4803.0148    355.59011 
   44050    302.53816   -6056.2949   -4839.1537   -4821.3443    59.550095 
   44100    309.73589   -6046.1404    -4800.042   -4536.8041     880.2034 
   44150    308.78419   -6035.1776   -4792.9079    -4429.186    1216.1976 
   44200    309.37263   -6083.5767   -4838.9396   -5214.6846   -1256.3997 
   44250    298.58724    -6126.747   -4925.5007   -5236.9738   -1041.4904 
   44300     307.6846   -6202.5466   -4964.7007   -4996.7804   -107.26659 
   44350    303.53519   -6201.5466   -4980.3942   -5073.4372   -311.11342 
   44400    295.26774   -6177.6542   -4989.7626   -4890.3165    332.52346 
   44450    309.37494   -6204.6576   -4960.0113    -5029.169   -231.24664 
   44500    313.47666   -6214.5083   -4953.3604   -5095.5017   -475.28575 
   44550      302.813   -6170.1311   -4951.8841    -5130.302   -596.58618 
   44600    301.86469   -6122.4694   -4908.0376    -4985.924   -260.43326 
   44650    302.43254   -6058.4006   -4841.6843   -5038.0514   -656.60373 
   44700     300.0859   -6027.0029   -4819.7273    -4346.879    1581.0898 
   44750    303.33063   -6056.4884    -4836.159   -4809.2372    90.019764 
   44800    310.70304   -6130.7429   -4880.7536   -5147.0182   -890.32417 
   44850    302.38815   -6144.0084   -4927.4706   -4974.2493   -156.41655 
   44900     299.2308   -6151.1677   -4947.3323   -4934.2433    43.766453 
   44950    306.51899   -6175.3106   -4942.1541   -4893.2792    163.42556 
   45000    292.71559    -6122.372   -4944.7479   -4626.5586    1063.9479 
   45050    292.56576   -6129.0472   -4952.0259   -5004.1819     -174.397 
   45100    295.14187    -6129.082   -4941.6967   -4918.1966    78.578746 
   45150    314.62853   -6180.9101   -4915.1281   -4922.4062   -24.336222 
   45200    304.65534   -6141.6385   -4915.9796   -4879.4116    122.27433 
   45250    302.28864   -6096.7988   -4880.6614   -4791.5376    298.00824 
   45300    312.09959   -6102.7454   -4847.1376   -4788.4851    196.11961 
   45350    308.71047   -6095.7414   -4853.7683   -4570.0299    948.75228 
   45400    303.31763   -6085.7236   -4865.4465   -4572.8996    978.20546 
   45450    317.45841   -6117.0617   -4839.8947   -4725.0194    384.11532 
   45500    303.35351   -6101.6841   -4881.2626   -4841.8971    131.62869 
   45550    293.04641   -6146.7774   -4967.8225   -5122.6207   -517.60779 
   45600    301.84899   -6192.0127    -4977.644   -5464.5876   -1628.2209 
   45650    311.18901   -6205.4046   -4953.4601   -5547.7998   -1987.3274 
   45700    298.23615   -6148.1165   -4948.2826    -4981.086   -109.68651 
   45750     303.5277   -6153.9622   -4932.8399   -4898.9532    113.30902 
   45800    297.02186   -6117.6451   -4922.6965   -4834.7871    293.94756 
   45850    306.05592   -6114.8847   -4883.5912   -4732.9411    503.73731 
   45900    304.75367   -6044.1622   -4818.1077   -4592.3548    754.86279 
   45950    304.42224   -6002.1066   -4777.3855   -4276.9063    1673.4806 
   46000    316.98884   -6030.4051   -4755.1273   -4961.3983   -689.71992 
   46050    319.11667   -6049.9613    -4766.123   -4558.0207    695.84339 
   46100    296.08277   -6016.6221   -4825.4516   -4522.5622    1012.7882 
   46150    295.26518   -6058.5344   -4870.6531   -4992.8923   -408.73833 
   46200    302.81827   -6082.4235   -4864.1553   -5064.7542   -670.75377 
   46250    298.81705    -6016.433   -4814.2622   -4429.4384     1286.757 
   46300     311.9141   -6000.9821   -4746.1205   -4481.8281    883.72932 
   46350    303.10027   -5925.8894   -4706.4867   -3942.5758    2554.3322 
   46400    303.88753   -5948.9668   -4726.3969   -3999.2074    2431.5446 
   46450    286.87971   -5933.7026   -4779.5568   -4340.3701    1468.5337 
   46500    321.69282   -6096.0773   -4801.8749   -4771.7878    100.60377 
   46550    290.71359   -5979.1162   -4809.5464   -4555.5732    849.22456 
   46600    310.26429   -6054.7697   -4806.5454   -4949.6345   -478.45508 
   46650    299.98258   -5999.2571   -4792.3972   -4577.3559    719.04567 
   46700    318.01805   -6041.9951   -4762.5767    -4959.225   -657.54429 
   46750     292.4638   -5895.6342   -4719.0231   -4146.9076    1913.0148 
   46800    299.38865   -5845.5077   -4641.0372    -3921.704    2405.2754 
   46850     316.9273   -5865.6474   -4590.6172   -3793.0266    2666.9487 
   46900    310.83044   -5830.9038   -4580.4018   -3957.4295    2083.0679 
   46950    307.94467   -5879.0959   -4640.2037   -4065.7847    1920.7173 
   47000    297.38334   -5911.5414   -4715.1385   -4295.5477    1403.0096 
   47050    294.23382   -5945.4266   -4761.6945   -4285.2167    1593.2256 
   47100    303.75781   -5969.6201   -4747.5721   -4238.6182    1701.8179 
   47150    302.27314   -5954.7044   -4738.6294   -3901.1734     2800.249 
   47200    308.64047   -5979.5436   -4737.8522   -4313.9128      1417.55 
   47250    303.29327   -5970.5068   -4750.3277   -4457.8907    977.83824 
   47300    307.45375    -5973.924   -4737.0068   -4317.4271    1402.9725 
   47350    300.60692   -5923.4589   -4714.0872   -3957.3998    2530.1785 
   47400    301.94992   -5861.5073   -4646.7326   -4177.5454    1568.8479 
   47450    301.48427   -5804.1512   -4591.2498   -3880.5244    2376.4929 
   47500    306.49602   -5809.0038   -4575.9397   -3785.4156    2643.3202 
   47550    309.13721   -5841.9002   -4598.2103   -3849.6867    2502.8807 
   47600    304.57743   -5897.7789   -4672.4334   -4045.4354    2096.5287 
   47650    291.12831   -5906.3975   -4735.1593   -4420.4584    1052.2832 
   47700    294.29314   -5894.1452   -4710.1744    -4161.853    1833.4534 
   47750    302.56256   -5831.7552   -4614.5158   -3734.1538    2943.7164 
   47800    319.33293   -5825.7756   -4541.0673   -3709.2481    2781.4009 
   47850    307.94725    -5805.511   -4566.6084   -3700.3046    2896.7091 
   47900    303.71995    -5837.429   -4615.5332   -4058.2961    1863.2655 
   47950    300.26795   -5894.6461   -4686.6381   -3524.0588    3887.3824 
   48000    296.49343   -5957.3183   -4764.4956   -4140.7834    2085.5416 
   48050    292.89403   -5986.2935   -4807.9516   -4788.1738    66.131964 
   48100     304.6652   -5996.2186     -4770.52   -4797.4296   -89.979058 
   48150    309.14433    -5915.956   -4672.2374   -3838.5066     2787.793 
   48200    315.34931   -5887.5289   -4618.8471   -3822.3531    2663.2821 
   48250    315.49556   -5908.8949   -4639.6247   -3859.0461    2610.0649 
   48300    308.21862   -5914.4826   -4674.4883   -3988.1845    2294.8329 
   48350    300.89271   -5920.9601   -4710.4386   -4487.0172    747.06672 
   48400    301.20914   -5950.6614    -4738.867   -4638.6351    335.15108 
   48450    296.41081    -5930.691   -4738.2007   -4436.7659    1007.9246 
   48500    299.94597   -5915.3869   -4708.6743   -4037.3086    2244.8836 
   48550    303.37545   -5878.5221   -4658.0124    -3905.255    2517.0374 
   48600    305.75593      -5814.6   -4584.5133   -3943.8802     2142.121 
   48650    318.33812   -5813.7606   -4533.0545   -3672.0617    2878.9504 
   48700     315.3371   -5819.3302   -4550.6975   -3905.2392    2158.2554 
   48750    312.26738   -5869.9075   -4613.6246   -4310.7589    1012.7094 
   48800    284.43783   -5816.8872   -4672.5654   -4119.2262    1850.2317 
   48850    300.52009   -5900.1812   -4691.1588   -4205.4105     1624.224 
   48900    309.31111   -5895.7257   -4651.3361   -3984.2916    2230.4345 
   48950    331.38354    -5941.417   -4608.2279   -4104.9406    1682.8702 
   49000    310.77654   -5910.5388   -4660.2537   -4158.5043    1677.7281 
   49050    304.46004   -5978.0298   -4753.1566   -4579.7964    579.67449 
   49100    304.59417   -6034.3672   -4808.9544   -4788.6416    67.921259 
   49150    307.25901   -6067.8036   -4831.6699      -4784.1    159.06218 
   49200    299.38163   -6072.6439   -4868.2017   -4946.0357   -260.25789 
   49250    299.21078    -6075.498   -4871.7431   -4786.7297    284.26409 
   49300    299.02807   -6034.4287   -4831.4089    -4792.733    129.32266 
   49350     317.6548    -6042.233    -4764.276   -4728.1264    120.87565 
   49400    319.33727   -6041.5845   -4756.8588   -4700.6529    187.93877 
   49450    306.53405   -6058.1239   -4824.9068   -4666.3342    530.22827 
   49500    303.79753   -6129.7159   -4907.5081   -4963.6516   -187.73018 
   49550    295.59418   -6147.4481   -4958.2432   -5185.7847   -760.84357 
   49600    313.51736   -6222.1933   -4960.8816   -5482.7245   -1744.9159 
   49650    299.69109   -6211.0134   -5005.3261   -5517.8623   -1713.7963 
   49700    306.72097   -6260.4002   -5026.4311   -5530.0097   -1683.8443 
   49750    305.18651   -6252.0819   -5024.2861   -5630.5777   -2027.2916 
   49800    306.62557   -6255.2044   -5021.6191    -5808.418    -2630.864 
   49850    306.13814   -6232.1805   -5000.5562   -5585.7234    -1956.657 
   49900    300.77345    -6210.489   -5000.4473   -5078.0454   -259.46914 
   49950    306.17096   -6258.1996   -5026.4432   -5893.6872   -2899.8527 
  STMD DIG: istep=50000  TSC1=50000 Tlow=0.921389
   50000    304.15705    -6275.363   -5051.7088   -5651.0085   -2003.9124 
   50050    307.93725   -6318.9756   -5080.1132   -5841.7188   -2546.6237 
   50100    297.19388   -6341.5038   -5145.8631   -6008.0426   -2882.9184 
   50150    300.23315   -6361.5133   -5153.6453   -6415.6824   -4219.9451 
   50200    306.42289   -6339.6566   -5106.8866   -5847.1743   -2475.3417 
   50250    313.49034   -6339.2472   -5078.0442   -5689.2828   -2043.8332 
   50300     315.2486   -6336.9694   -5068.6928    -5861.793   -2651.9341 
   50350    299.34646   -6298.7263   -5094.4256   -5604.0457   -1704.0456 
   50400    306.79252   -6321.2904   -5087.0334   -5775.1023   -2300.7349 
   50450     315.4994   -6372.5104   -5103.2248   -6205.8274   -3686.8347 
   50500    302.34088   -6389.9964   -5173.6488   -6413.1827   -4144.6998 
   50550    294.98509   -6407.1958   -5220.4413   -6331.1392   -3713.9034 
   50600    301.00146   -6409.3424   -5198.3834   -6316.0778   -3737.2981 
   50650     305.4422   -6356.0307   -5127.2062   -5824.6941   -2332.2298 
   50700    303.87265   -6293.7706   -5071.2605   -5113.2881   -140.53011 
   50750    313.93839   -6289.6613   -5026.6558   -5519.5737   -1648.1977 
   50800    300.41344   -6251.9365   -5043.3432   -5476.8728   -1449.6174 
   50850    308.11211   -6321.8387   -5082.2728   -5936.5872   -2856.6192 
   50900    317.30569   -6383.1234   -5106.5709   -6097.9434   -3314.9084 
   50950    300.13863     -6391.21   -5183.7223   -6033.7741   -2842.3663 
   51000    290.25021   -6424.9414   -5257.2358   -6343.4783   -3632.1307 
[...]
   87650    312.59614   -6425.5367   -5167.9312    -6149.123   -3280.8668 
   87700    306.16068    -6359.486    -5127.771   -5920.1092   -2649.3861 
   87750    298.61027   -6314.0117   -5112.6728   -5738.3303   -2092.0465 
   87800    299.86544   -6300.8498   -5094.4612   -5662.9824   -1900.9965 
   87850    311.15365   -6313.9977   -5062.1954   -5296.2869    -782.7449 
   87900     304.9092   -6283.3659   -5056.6857   -5636.2357   -1937.8742 
   87950    297.82254   -6257.2145   -5059.0447   -5249.6673   -637.39579 
   88000    302.92293   -6262.4981   -5043.8089    -5308.169   -883.95584 
   88050    301.77076   -6213.4644   -4999.4104   -5055.4919   -187.52263 
   88100    317.23445   -6226.6421   -4950.3762   -5171.5431   -739.52831 
   88150    306.52397   -6180.8425    -4947.666   -4875.8599    240.10196 
   88200    292.62774   -6130.1319   -4952.8612   -5410.6444   -1530.7156 
   88250      294.178   -6087.3846   -4903.8771   -4858.6566    151.20633 
   88300    318.36778   -6103.5491   -4822.7237   -5130.1086   -1027.8203 
   88350    312.19479   -6023.5974   -4767.6065   -4360.8895    1359.9628 
   88400    309.74899   -5971.5202    -4725.369    -4031.741    2319.3235 
   88450    300.41968   -5906.7131   -4698.0947   -4072.9085    2090.4706 
   88500     306.2278   -5867.7896   -4635.8046   -3621.8426     3390.442 
   88550    304.98263   -5818.5622   -4591.5866   -4037.0828    1854.1255 
   88600    303.05552   -5787.1736    -4567.951    -3901.516    2228.3964 
   88650    312.06079   -5823.3941   -4567.9424   -3854.6783    2384.9814 
   88700    296.36522   -5804.5021   -4612.1952   -4018.3363    1985.7196 
   88750    308.07992   -5857.6474    -4618.211   -4383.6079     784.4558 
   88800    305.48371   -5836.6896   -4607.6981    -3814.739    2651.4623 
   88850    306.46184   -5893.7701   -4660.8435    -3985.941    2256.7097 
   88900    317.73197   -6031.5008   -4753.2333   -4384.6261    1232.5328 
   88950    290.31682   -6023.1635   -4855.1899   -4497.7237    1195.2801 
   89000    292.69062    -6101.143   -4923.6194   -4929.4743   -19.577458 
   89050    302.42564   -6190.0906   -4973.4021   -5130.9299   -526.73486 
   89100    300.63246   -6218.4035    -5008.929   -5312.4158   -1014.7861 
   89150    298.03959   -6193.6116   -4994.5685   -5370.5601   -1257.2243 
   89200     304.0566   -6182.8058   -4959.5557   -5093.8212   -448.95116 
   89250    303.25696   -6129.1204   -4909.0874   -4965.1731   -187.53699 
   89300    305.28523   -6090.5161   -4862.3231   -4988.5782   -422.16627 
   89350     302.7647   -6048.0843   -4830.0317   -4871.2618   -137.86338 
   89400    320.48352   -6077.7351   -4788.3978   -4820.8388   -108.47469 
   89450    304.27784   -5985.5237   -4761.3836   -4513.9295    827.42622 
   89500    302.08189   -5973.3236    -4758.018   -4176.6567    1943.9308 
   89550     314.4264   -6025.4178    -4760.449   -4479.7487    938.59342 
   89600    298.47135   -6001.1508   -4800.3708   -4560.3046    802.72292 
   89650    304.24011   -6057.8309   -4833.8425   -5083.4437   -834.60542 
   89700    313.25659   -6118.8918   -4858.6292   -4711.0909    493.33215 
   89750    303.22259   -6139.8175   -4919.9227   -5157.5376   -794.52633 
   89800    302.38996   -6177.2006   -4960.6556   -5170.0559   -700.18379 
   89850    300.69154   -6157.8942    -4948.182   -5116.0009   -561.14547 
   89900     303.0539    -6106.047   -4886.8308   -4837.6343    164.50107 
   89950    308.45843   -6071.3289   -4830.3697    -4851.041   -69.119701 
   90000    304.25501   -6016.2942   -4792.2459   -4575.8806    723.47292 
   90050    304.43795   -5991.7901   -4767.0058   -4196.1637    1908.7571 
   90100    306.85249   -5982.0702    -4747.572   -4153.7218    1985.6905 
   90150    304.88634   -5963.3566   -4736.7683   -4191.5007    1823.2423 
   90200    301.07578   -5937.9312   -4726.6733   -3990.5768    2461.3274 
   90250    299.97188   -5905.1463   -4698.3295   -3853.4205    2825.1701 
   90300    307.82062   -5895.5168   -4657.1237   -4029.2774    2099.3655 
   90350    302.05014   -5845.2799    -4630.102     -3855.12    2591.3511 
   90400    311.01841   -5893.7007   -4642.4425   -4265.9921    1258.7587 
   90450    314.69698   -5973.3433   -4707.2859   -4216.2418    1641.9319 
   90500    296.56471    -5997.199   -4804.0895   -4243.3761     1874.889 
   90550    307.79839   -6103.3063   -4865.0026   -5144.5614   -934.77669 
   90600    300.77025   -6088.6014   -4878.5726   -4794.0082    282.76284 
   90650    309.67237   -6125.7624   -4879.9195   -4716.5178    546.37532 
   90700    300.31819    -6126.387   -4918.1769   -4713.2289    685.29627 
   90750    292.62662   -6168.2802   -4991.0141   -5000.9342   -33.170522 
   90800    305.18135   -6256.2297   -5028.4546   -5487.3488   -1534.4306 
   90850    300.24709   -6257.3137   -5049.3896   -5667.2079   -2065.8339 
   90900    307.61342   -6292.2551   -5054.6955   -5717.1929     -2215.23 
   90950    289.56193     -6238.02   -5073.0835   -5578.8241   -1691.0737 
   91000    301.29738   -6278.4409   -5066.2914    -5682.333   -2059.8932 
   91050    307.51896   -6311.1055    -5073.926   -5727.3326   -2184.8325 
   91100    301.79197   -6310.2222   -5096.0829   -5666.1118   -1906.0377 
   91150    301.36146   -6334.8932   -5122.4859   -6084.6066   -3217.0975 
   91200    310.97996   -6428.6922   -5177.5888   -6293.3888   -3730.9638 
   91250    302.46727   -6460.4451    -5243.589   -6497.7168   -4193.4982 
   91300    298.42543   -6459.8482   -5259.2529   -6274.8573   -3395.9341 
   91350    299.92081   -6438.4146   -5231.8032   -6325.0252   -3655.4686 
   91400    290.31413   -6351.5561   -5183.5933    -5939.359   -2527.0967 
   91450    307.26672   -6315.5125   -5079.3478   -5644.5247    -1889.814 
   91500    303.24743   -6234.8567   -5014.8619   -5319.5554   -1018.8209 
   91550    314.38689    -6283.307   -5018.4971    -5454.844   -1459.0376 
   91600    309.01201   -6323.4859   -5080.2997   -5921.0642   -2811.3119 
   91650    308.36027   -6390.1104   -5149.5462    -6147.501    -3336.918 
   91700    291.44281   -6388.4171   -5215.9135    -6099.267   -2953.7192 
   91750    310.73437   -6466.4557   -5216.3403   -6549.0337   -4456.2023 
   91800     296.5386    -6406.938   -5213.9336   -6075.2145   -2879.9137 
   91850    316.38637   -6442.7419   -5169.8879   -6455.0513   -4297.2737 
   91900    303.48745    -6389.231   -5168.2706   -6313.5241    -3829.449 
   91950    308.73445   -6380.8573   -5138.7877   -6074.3587   -3128.3217 
   92000     310.0412   -6382.1638   -5134.8371   -5735.8982   -2009.8022 
   92050    290.74881   -6349.8057   -5180.0942   -5839.8446   -2206.0447 
   92100    300.32707   -6377.4203   -5169.1745   -5946.3883   -2598.8139 
   92150    302.63302   -6344.0138   -5126.4909   -5577.4771   -1507.9879 
   92200    304.03442   -6337.9471   -5114.7862   -5610.4927   -1657.5219 
   92250    298.27955   -6305.5142   -5105.5058    -5756.672   -2177.3413 
   92300    305.20709   -6283.6288   -5055.7501   -5725.1757   -2238.3963 
   92350    313.75806   -6294.2781    -5031.998   -5444.5353   -1379.4244 
   92400    292.48541   -6240.9231   -5064.2251   -5561.2045   -1661.7781 
   92450    306.75506   -6328.2008   -5094.0946   -6461.8291   -4573.3716 
   92500    308.84919   -6364.6152   -5122.0841   -5903.2446   -2612.0108 
   92550    297.70462   -6345.7459   -5148.0504     -6006.14   -2869.2426 
   92600    322.00584   -6407.4084   -5111.9467   -6454.8643   -4490.3896 
   92650    308.80486   -6367.4643   -5125.1114   -5998.7403   -2921.2024 
   92700    305.34643   -6402.1831   -5173.7439   -6429.2091   -4197.9703 
   92750    301.37283   -6402.8761   -5190.4231   -6318.1849    -3770.961 
   92800    303.83061   -6403.5926   -5181.2516   -6671.3837   -4982.6389 
   92850    314.31467   -6464.0218   -5199.5025   -6676.3637   -4938.2646 
   92900     305.2561   -6494.5732   -5266.4974   -6626.3423   -4546.9903 
   92950    297.90805   -6523.4895   -5324.9756   -6625.5074   -4348.6617 
   93000    285.76509   -6482.2414   -5332.5799   -6806.6825   -4929.0404 
   93050    300.45834   -6447.2679    -5238.494   -6430.6996   -3986.4456 
   93100    317.36861   -6417.8245   -5141.0188   -6194.3584   -3522.1112 
   93150    296.52495   -6297.8644   -5104.9149   -5585.6606   -1607.4968 
   93200    308.95823   -6285.4182   -5042.4483    -5533.375   -1641.5395 
   93250    326.47588   -6328.0695   -5014.6244   -5896.2825     -2948.05 
   93300    298.68915   -6280.9294   -5079.2731   -5665.9034   -1961.5488 
   93350    307.58903   -6331.6782   -5094.2168    -5988.703   -2990.9442 
   93400    296.00176    -6267.641   -5076.7964   -5051.6353    84.132581 
   93450    314.71899   -6299.9194   -5033.7735   -5655.8045   -2079.9203 
   93500    302.03366   -6299.4844   -5084.3728   -5713.9576   -2105.1784 
   93550    301.19143   -6356.5334   -5144.8101   -5937.8229   -2651.6417 
   93600    298.55196   -6381.9116   -5180.8072   -6173.0944   -3317.9669 
   93650    301.50605   -6432.0293   -5219.0403   -6014.0706   -2658.3878 
   93700    296.00401   -6459.4508   -5268.5971   -6553.6637   -4296.9499 
   93750    297.84324   -6487.6439   -5289.3908   -6681.6303   -4655.3101 
   93800    313.55979   -6544.4287   -5282.9463   -6860.9733   -5276.5381 
   93850     300.1107   -6535.7918   -5328.4164   -6590.2696     -4219.33 
   93900    298.41203   -6544.3385   -5343.7971   -7135.4481   -5990.8448 
   93950    296.58033   -6510.5487   -5317.3764   -6296.5109   -3273.9875 
   94000    321.40804   -6556.4601   -5263.4034   -6994.7921   -5789.3426 
   94050    301.50788   -6508.7171   -5295.7208   -6506.6934   -4049.1976 
   94100     300.9919   -6519.4945    -5308.574    -6617.164   -4375.6066 
   94150    302.72938   -6505.1872   -5287.2766   -6884.2042   -5339.7372 
   94200    302.76722   -6435.5068    -5217.444   -6258.6743    -3481.621 
   94250    312.30903   -6413.6896   -5157.2392   -6211.8424   -3526.3364 
   94300    313.32799    -6402.752   -5142.2022   -6427.1382   -4296.5133 
   94350    311.10954   -6384.9499   -5133.3251   -6427.7659   -4328.2951 
   94400     299.0581   -6353.0961   -5149.9555    -5895.973   -2494.5009 
   94450    304.19346   -6362.4615   -5138.6608   -6196.4308   -3536.9257 
   94500    310.35935   -6372.6732   -5124.0665    -5733.579   -2038.0615 
   94550    294.97719   -6303.6578   -5116.9351   -5327.4495   -703.90901 
   94600    297.30013   -6293.2354   -5097.1673   -5416.1885   -1066.7293 
   94650    307.71921   -6333.1368   -5095.1516   -5477.2911   -1277.7815 
   94700    309.86061   -6330.3429   -5083.7427   -5859.0967   -2592.5951 
   94750     297.5638   -6260.0263   -5062.8974    -4679.494    1282.0074 
   94800    312.63727   -6268.7314   -5010.9604   -4767.2313    814.97084 
   94850    299.18398   -6179.7296   -4976.0826   -5303.1672   -1093.6915 
   94900    310.09749   -6218.5004   -4970.9473   -5051.9628   -270.89617 
   94950    302.99074   -6201.6158   -4982.6537    -5315.065   -1111.5024 
   95000    298.84322   -6162.6174   -4960.3412   -5273.6881   -1047.7558 
   95050    312.17647   -6184.0112   -4928.0941   -5124.7201   -657.46949 
   95100    300.13958    -6121.505   -4914.0134   -5027.6867   -380.09575 
   95150    313.03031   -6137.7496   -4878.3974   -4932.6712    -181.4785 
   95200    310.48234   -6123.6432   -4874.5417   -4780.2976    315.12925 
   95250    318.23877   -6185.6873   -4905.3809   -5250.2802   -1153.2594 
   95300    288.37086   -6096.6651   -4936.5203   -4857.5047    264.20871 
   95350    317.17268   -6162.4982   -4886.4808   -5117.1342   -771.24887 
   95400    306.74893   -6079.4581   -4845.3765   -4676.3027    565.34143 
   95450    304.23862   -6061.4875   -4837.5051   -4914.2407   -256.58519 
   95500    306.53632   -6083.5208   -4850.2945   -4385.0232     1555.754 
   95550     311.1028    -6123.068   -4871.4704   -5012.4963   -471.55642 
   95600    289.10747   -6005.5738   -4842.4656   -4691.9361    503.33386 
   95650    310.77576   -5995.3602   -4745.0782   -4670.1759    250.45488 
   95700    315.43471   -5884.8065   -4615.7811   -3734.4899    2946.8235 
   95750    306.19381   -5815.1866   -4583.3383   -3621.5697    3215.9199 
   95800    306.21008   -5866.2512   -4634.3375   -3930.4807    2353.5257 
   95850    300.17237   -5900.0282   -4692.4048   -4365.9423     1091.611 
   95900    302.76473   -5930.5999   -4712.5471   -4185.5194    1762.2523 
   95950    299.76526   -5911.3076    -4705.322   -4382.6895    1078.8047 
   96000    302.57488   -5903.2076   -4685.9186   -4229.0552    1527.6401 
   96050    307.42688   -5873.5654   -4636.7564   -3880.5006    2528.7353 
   96100    301.05324   -5812.3094   -4601.1421   -3957.3329    2152.7415 
   96150    299.33118   -5809.1331   -4604.8939   -3812.0574     2651.052 
   96200    298.94158   -5823.4056   -4620.7338   -4024.9009    1992.3201 
   96250    302.59008   -5876.2576   -4658.9074   -4295.1275    1216.3915 
   96300    303.26841   -5903.3061   -4683.2269   -4339.4394    1149.5418 
   96350    304.92658   -5919.6441    -4692.894   -4408.3225    951.53769 
   96400    304.95333   -5924.3976   -4697.5399   -4425.1117    910.93347 
   96450    302.84182    -5933.929   -4715.5661    -4438.932    924.99706 
   96500    308.18407   -5988.2558   -4748.4005   -4439.8425    1031.7427 
   96550    304.70125    -6013.369   -4787.5255   -4730.5761     190.4248 
   96600    293.84108    -5996.488   -4814.3359   -4837.9695   -79.024785 
   96650    316.75132   -6053.9869   -4779.6647   -4675.9988    346.63326 
   96700    299.81413   -5978.4339   -4772.2517    -4256.081    1725.9492 
   96750    301.65575   -6002.4822    -4788.891   -4667.3961     406.2493 
   96800    317.32694   -6048.6652   -4772.0272   -4775.0857   -10.226776 
   96850    312.55951   -6066.4218   -4808.9636   -4721.6075    292.09751 
   96900    303.91303   -6103.5785    -4880.906   -4913.9137   -110.36985 
   96950    307.27811   -6164.5063   -4928.2957   -5127.7575   -666.95168 
   97000    303.76924     -6181.89    -4959.796   -5257.3093   -994.81212 
   97050    300.04839   -6196.5264   -4989.4017   -5335.2027   -1156.2742 
   97100    300.78099   -6209.9584   -4999.8864   -5686.5167   -2295.9248 
   97150    309.45819   -6220.7844   -4975.8032   -5259.4757   -948.53168 
   97200     309.2044    -6231.337   -4987.3768   -5607.2912   -2072.8428 
   97250    305.51473    -6253.113   -5023.9967   -5565.8101    -1811.692 
   97300    298.36244   -6254.6149    -5054.273    -5360.593   -1024.2596 
   97350    298.08498   -6255.5915   -5056.3659   -5332.8422   -924.46977 
   97400    302.69797   -6272.6661   -5054.8819   -5317.2957     -877.448 
   97450    304.57746   -6287.9092   -5062.5636   -5199.9152   -459.27023 
   97500    301.66104   -6271.6415    -5058.029   -5372.7303   -1052.2848 
   97550    305.52838   -6222.9903   -4993.8191   -4841.6687    508.75395 
   97600    309.74502   -6170.5101   -4924.3749   -4766.9444    526.40947 
   97650    306.28758   -6143.6053   -4911.3797    -5157.204   -821.97664 
   97700    299.25032   -6121.2566   -4917.3427    -4853.074    214.89887 
   97750    299.30806    -6113.611   -4909.4648   -4800.2596    365.15534 
   97800    308.67781   -6137.1216   -4895.2799    -5047.416   -508.70596 
   97850    296.03591   -6101.0585   -4910.0764   -4770.4476    466.88463 
   97900    299.27457   -6121.3948   -4917.3833   -4807.4055    367.73881 
   97950    297.18539   -6092.4095    -4896.803   -4430.3419    1559.7323 
   98000    309.87494   -6103.0546   -4856.3968   -4498.1166    1198.0017 
   98050    303.19783   -6023.3895   -4803.5943   -4226.4529    1929.8206 
   98100    306.92471   -5992.4382   -4757.6494   -4273.1777    1619.9555 
   98150    305.55537   -5953.4658    -4724.186   -4217.2201    1695.1705 
   98200    303.22086   -5914.6303   -4694.7424   -4374.6339     1070.365 
   98250    303.17114   -5864.7396   -4645.0518   -3689.3005    3195.7996 
   98300    315.88589   -5883.7296   -4612.8891    -3941.553    2244.7844 
   98350    309.05175   -5884.9086   -4641.5625   -4197.8905    1483.5312 
   98400    306.76358   -5959.9148   -4725.7742   -4640.5102    285.10201 
   98450    300.37966   -6021.6028   -4813.1454    -4493.579    1068.5524 
   98500     294.8538   -6051.0556   -4864.8293    -5013.007   -495.47015 
   98550    296.19251   -6050.8515   -4859.2395   -4811.8679    158.39912 
   98600    305.32036   -6040.0372   -4811.7029   -4805.6306     20.30426 
   98650    314.00811   -6009.7359   -4746.4499   -4507.1769     800.0707 
   98700    307.62027   -5946.0095   -4708.4224   -4525.6568     611.1238 
   98750    302.08736   -5882.8687   -4667.5411   -4027.1709     2141.242 
   98800    307.22147   -5882.7137    -4646.731   -4090.5902    1859.5996 
   98850    298.80122   -5828.1496   -4626.0424   -3644.3236    3282.6286 
   98900    304.51026   -5840.6922    -4615.617   -3880.0098    2459.6915 
   98950    307.58541   -5870.6028   -4633.1559   -3978.7426    2188.1989 
   99000    307.02567   -5966.6363   -4731.4414   -4539.7925    640.82706 
   99050    307.24652   -6077.3824   -4841.2989   -5140.8884   -1001.7543 
   99100    305.94565   -6147.7374   -4916.8875   -5534.5911   -2065.4505 
   99150    309.59108   -6223.6485   -4978.1327   -5311.5846   -1114.9821 
   99200    302.30518   -6232.5095   -5016.3055   -5420.7125   -1352.2385 
   99250    302.91287   -6227.6749   -5009.0261   -5323.5362   -1051.6453 
   99300    309.21877   -6252.0908   -5008.0728    -5415.623   -1362.7486 
   99350    304.98895   -6233.1733   -5006.1723   -5553.1944    -1829.109 
   99400    303.06565   -6173.5362   -4954.2728   -4970.0719   -52.828584 
   99450    294.42476    -6076.649   -4892.1487   -4959.7526   -226.05071 
   99500    307.06649   -6068.0579   -4832.6987   -4495.8347    1126.3913 
   99550     310.3385   -6056.3923   -4807.8695   -4775.0622    109.69968 
   99600    302.41517   -6032.2339   -4815.5874   -4473.0405    1145.3937 
   99650    297.83569   -5998.1912   -4799.9685   -4255.5325    1820.4614 
   99700    321.97558   -6068.3961   -4773.0562   -4936.5614   -546.72171 
   99750    297.94632   -5959.8862   -4761.2184    -4415.035    1157.5531 
   99800    305.57625   -5963.6029   -4734.2391    -4229.982     1686.113 
   99850    307.76197   -5927.6709   -4689.5137   -4312.4062    1260.9556 
   99900    316.04798   -5926.5831   -4655.0905   -4185.9494    1568.6937 
   99950    315.80101   -5953.9348   -4683.4358   -4430.7801    844.81916 
  STMD DIG: istep=100000  TSC1=50000 Tlow=1.082216
  100000    296.21171   -5936.7424   -4745.0531   -4548.1767    658.30665 
Loop time of 157.318 on 28 procs for 100000 steps with 2004 atoms

Performance: 109.841 ns/day, 0.218 hours/ns, 635.654 timesteps/s
100.0% CPU use with 28 MPI tasks x 1 OpenMP threads

MPI task timing breakdown:
Section |  min time  |  avg time  |  max time  |%varavg| %total
---------------------------------------------------------------
Pair    | 60.046     | 71.512     | 83.24      |  81.3 | 45.46
Bond    | 0.033703   | 0.20226    | 0.79493    |  47.2 |  0.13
Kspace  | 32.754     | 44.559     | 56.595     | 103.3 | 28.32
Neigh   | 7.4094     | 7.5312     | 7.7956     |   5.2 |  4.79
Comm    | 18.683     | 19.878     | 20.655     |  14.3 | 12.64
Output  | 0.081      | 0.082485   | 0.086674   |   0.4 |  0.05
Modify  | 12.577     | 12.767     | 13.048     |   3.3 |  8.12
Other   |            | 0.7872     |            |       |  0.50

Nlocal:    71.5714 ave 83 max 60 min
Histogram: 3 0 0 8 5 1 4 3 2 2
Nghost:    3799.79 ave 3862 max 3738 min
Histogram: 2 2 4 4 1 3 7 1 1 3
Neighs:    25293.6 ave 30888 max 19757 min
Histogram: 2 4 2 2 4 3 4 2 1 4

Total # of neighbors = 708220
Ave neighs/atom = 353.403
Ave special neighs/atom = 2.34032
Neighbor list builds = 9147
Dangerous builds = 0

#write_restart     restart.peptide.*
#write_data        data.peptide.${rep}
Total wall time: 0:02:39
