LAMMPS (13 Apr 2017)
Processor partition = 1
units           real
atom_style      full

pair_style        lj/charmm/coul/long 8.0 10.0 10.0
bond_style        harmonic
angle_style       charmm
dihedral_style    charmm
improper_style    harmonic
kspace_style      pppm 0.0001

# Define variables
variable tlo world 220 270
variable thi world 300 350
variable rep world 0 1
variable temp equal 305.0
variable steps equal 1000000

read_data         data.peptide
  orthogonal box = (36.8402 41.0137 29.7681) to (64.2116 68.3851 57.1395)
  2 by 2 by 2 MPI processor grid
  reading atoms ...
  2004 atoms
  reading velocities ...
  2004 velocities
  scanning bonds ...
  3 = max bonds/atom
  scanning angles ...
  6 = max angles/atom
  scanning dihedrals ...
  14 = max dihedrals/atom
  scanning impropers ...
  1 = max impropers/atom
  reading bonds ...
  1365 bonds
  reading angles ...
  786 angles
  reading dihedrals ...
  207 dihedrals
  reading impropers ...
  12 impropers
  4 = max # of 1-2 neighbors
  7 = max # of 1-3 neighbors
  14 = max # of 1-4 neighbors
  18 = max # of special neighbors
#read_data         data.peptide.${rep}

neighbor          2.0 bin
neigh_modify      delay 5

timestep          2.0

thermo_style      custom step temp pe etotal enthalpy press
thermo            50

fix               1 all nvt temp ${temp} ${temp} 100.0 tchain 1
fix               1 all nvt temp 305 ${temp} 100.0 tchain 1
fix               1 all nvt temp 305 305 100.0 tchain 1
fix	              fxSTMD all stmd ${steps} constant 0.001 0.00002 ${tlo} ${thi} -7500 -5500 12 50000 500000 ${temp} no
fix	              fxSTMD all stmd 1000000 constant 0.001 0.00002 ${tlo} ${thi} -7500 -5500 12 50000 500000 ${temp} no
fix	              fxSTMD all stmd 1000000 constant 0.001 0.00002 270 ${thi} -7500 -5500 12 50000 500000 ${temp} no
fix	              fxSTMD all stmd 1000000 constant 0.001 0.00002 270 350 -7500 -5500 12 50000 500000 ${temp} no
fix	              fxSTMD all stmd 1000000 constant 0.001 0.00002 270 350 -7500 -5500 12 50000 500000 305 no
fix               2 all shake 0.0001 10 0 b 4 6 8 10 12 14 18 a 31
  19 = # of size 2 clusters
  6 = # of size 3 clusters
  3 = # of size 4 clusters
  640 = # of frozen angles

group             peptide type <= 12
84 atoms in group peptide
dump              mydump peptide dcd 1000 ${rep}.dcd
dump              mydump peptide dcd 1000 1.dcd
dump_modify       mydump pad 8
dump_modify       mydump unwrap yes

temper/stmd       ${steps} 1000 ${temp} fxSTMD 0 12345 off
temper/stmd       1000000 1000 ${temp} fxSTMD 0 12345 off
temper/stmd       1000000 1000 305 fxSTMD 0 12345 off
PPPM initialization ...
WARNING: Using 12-bit tables for long-range coulomb (../kspace.cpp:321)
  G vector (1/distance) = 0.268725
  grid = 15 15 15
  stencil order = 5
  estimated absolute RMS force accuracy = 0.0228209
  estimated relative force accuracy = 6.87243e-05
  using double precision FFTs
  3d grid and FFT values/proc = 2744 512
RESTMD: #replicas= 2  walker= 1
STMD: STAGE= 1, #bins= 168  binsize= 12.000000
  Emin= -7500.000000 Emax= -5500.000000 f-value= 1.024290 df= 0.001000
  f-tolerances: STG3= 1.000000 STG4= 1.000000
Neighbor list info ...
  update every 1 steps, delay 5 steps, check yes
  max neighbors/atom: 2000, page size: 100000
  master list distance cutoff = 12
  ghost atom cutoff = 12
  binsize = 6, bins = 5 5 5
  1 neighbor lists, perpetual/occasional/extra = 1 0 0
  (1) pair lj/charmm/coul/long, perpetual
      attributes: half, newton on
      pair build: half/bin/newton
      stencil: half/bin/3d/newton
      bin: standard
  STMD DIG: istep= 0  TSC1= 50000 T= 1.147104
Per MPI rank memory allocation (min/avg/max) = 15.04 | 15.14 | 15.43 Mbytes
Step Temp PotEng TotEng Enthalpy Press 
       0    303.06656   -6135.9847   -4916.7176   -4142.6592    2588.2629 
      50    290.59402   -6017.9277   -4848.8389   -4461.0573    1296.6474 
     100    312.22832   -5952.8695   -4696.7438   -3921.0777    2593.6385 
     150    311.15712   -5822.4971   -4570.6809   -3843.7683    2430.6188 
     200     314.7213   -5777.0156   -4510.8604   -3924.6805    1960.0428 
     250    322.39358   -5830.8805   -4533.8589   -3652.9156      2945.66 
     300    296.06057   -5819.3623    -4628.281    -4229.639    1332.9621 
     350    297.01995   -5890.9593   -4696.0184   -4362.0739    1116.6291 
     400    294.55467   -5858.6337   -4673.6108   -4147.1864     1760.235 
     450    316.00458   -5873.2996   -4601.9816   -4069.3492    1780.9931 
     500    316.85405   -5831.6587   -4556.9231   -3697.7099    2873.0001 
     550    304.81181        -5832   -4605.7116   -3656.8082    3172.9021 
     600    300.14226   -5899.7428   -4692.2405   -4144.6301     1831.076 
     650    297.12647   -5939.1634   -4743.7939   -4229.6807    1719.0695 
     700     295.6915   -5899.4445    -4709.848   -4010.3086    2339.0897 
     750    317.67853   -5895.8211   -4617.7687   -3855.4069     2549.152 
     800    315.57221   -5833.1488   -4563.5702   -4014.1862    1837.0064 
     850    312.15189   -5852.5095   -4596.6912   -4304.4724    977.10863 
     900    301.75321   -5898.2945   -4684.3112   -4220.9675    1549.3085 
     950    286.42692   -5884.4384   -4732.1143   -4045.5302    2295.7703 
    1000    297.44967   -5906.7069   -4710.0371   -4112.0978    1999.3637 
    1050    295.52554   -5845.5964   -4656.6677   -4240.5656    1391.3441 
    1100    315.56808   -5843.6873   -4574.1254   -4077.7625    1659.7168 
    1150    309.15957   -5779.8717   -4536.0918   -3745.8539    2642.3634 
    1200     299.1909    -5780.362   -4576.6871   -3926.8778    2172.8044 
    1250    299.37045   -5881.9573     -4677.56   -4323.1093    1185.1972 
    1300    297.43846     -5937.64   -4741.0154   -4559.7894    605.97561 
    1350    310.31712   -6007.3858    -4758.949   -3944.6542    2722.8035 
    1400    302.49537   -5946.2694   -4729.3003    -4151.479    1932.0936 
    1450     306.7452   -5918.1184   -4684.0518   -4282.6649      1342.14 
    1500    306.83922   -5875.8923   -4641.4475   -4194.2308    1495.3839 
    1550    307.37723   -5858.5016   -4621.8923    -4150.011    1577.8563 
    1600    308.72461   -5855.5522   -4613.5222   -4013.5246     2006.246 
    1650    311.00358   -5856.2373   -4605.0388   -4065.9682    1802.5212 
    1700    302.93911    -5868.559   -4649.8046    -4232.187    1396.4117 
    1750    294.93801   -5884.7213   -4698.1562   -3656.7358    3482.2563 
    1800     305.8052   -5974.6546   -4744.3697   -4422.0426    1077.7834 
    1850    306.70148   -6001.2874   -4767.3967   -4541.3891    755.71451 
    1900    291.31043   -5886.9747   -4715.0038   -4093.9027    2076.8108 
    1950    308.08462   -5853.3579   -4613.9026   -3925.7724      2300.94 
    2000    318.16178   -5822.8048   -4542.8081   -3832.0841    2376.4881 
    2050    310.39108   -5773.4803    -4524.746   -3967.4541    1863.4483 
    2100    305.89482   -5784.2077   -4553.5623   -3972.2098    1943.9011 
    2150     304.1297   -5845.8932    -4622.349   -3989.6637    2115.5456 
    2200    305.03575   -5887.7419   -4660.5526   -4348.6601    1042.8927 
    2250     303.5568   -5910.5364   -4689.2971   -4205.3997    1618.0351 
    2300     300.4759     -5906.74   -4697.8954   -4222.9142    1588.2214 
    2350    310.16307   -5953.3896   -4705.5725   -4168.8921    1794.5286 
    2400    304.40727    -5943.122   -4718.4611    -4499.926    730.72803 
    2450     313.2301    -6002.079    -4741.923   -4150.6188    1977.1773 
    2500    293.16329    -5947.379   -4767.9537   -4139.7573    2100.5359 
    2550    298.24718   -5971.2541   -4771.3759   -4526.0041    820.46379 
    2600    304.19378   -5971.0096   -4747.2076   -4350.0903    1327.8638 
    2650    304.86512   -5936.4367   -4709.9338   -4321.8723    1297.5832 
    2700    308.98483   -5917.0551   -4673.9783   -4335.9223    1130.3769 
    2750    305.35444   -5845.2878   -4616.8164   -4009.5138     2030.672 
    2800    304.55307   -5793.3317   -4568.0843   -3697.4286    2911.2606 
    2850    319.02295   -5846.3198   -4562.8586   -3845.3872    2399.0497 
    2900    301.23883   -5827.9791   -4616.0651   -4027.5984    1967.6896 
    2950    290.91136   -5837.5403   -4667.1748   -4079.2153    1965.9935 
    3000     301.1156   -5868.4253   -4657.0072   -4076.5438    1940.9283 
    3050    304.74804   -5814.1467   -4588.1149   -3617.9345     3244.047 
    3100    307.29095   -5773.5092    -4537.247   -3940.5125    1995.3349 
    3150    312.69805   -5787.1843   -4529.1687   -3873.3916    2192.7592 
    3200    311.78268   -5815.1436   -4560.8107   -3946.5994    2053.7733 
    3250    307.97664   -5872.6588    -4633.638    -4034.592     2003.064 
    3300    304.40898   -5942.1262   -4717.4584   -4123.0884    1987.4288 
    3350    299.32227   -5995.7033   -4791.4999   -4239.8208    1844.6807 
    3400    289.31043   -5987.0614   -4823.1366    -4311.958    1709.2567 
    3450    307.31875   -6032.9654   -4796.5913   -4067.3218    2438.4998 
    3500    309.69102   -5987.9511   -4742.0331   -4043.9008    2334.3847 
    3550    310.98277   -5966.1385   -4715.0237    -4059.841    2190.7716 
    3600    299.50502   -5915.0381   -4710.0995   -4085.1281    2089.7521 
    3650    307.19248   -5913.9823   -4678.1163   -4211.7513    1559.4108 
    3700    322.33205    -5937.694   -4640.9199   -4301.0347    1136.4937 
    3750    302.88841   -5865.7287   -4647.1784   -3946.3691    2343.3356 
    3800    293.26036   -5880.9112   -4701.0954   -4140.2221    1875.4239 
    3850    300.17755   -5934.0563    -4726.412    -4264.751    1543.6821 
    3900    300.87145   -5936.7774   -4726.3414     -4329.55    1326.7739 
    3950     304.8212   -5926.4773   -4700.1512   -4258.5528    1476.5974 
    4000    297.27995   -5848.8835   -4652.8966   -4145.9677     1695.047 
    4050    317.57088   -5883.5885   -4605.9691   -4055.9226    1839.2216 
    4100    309.79552   -5872.9716   -4626.6332   -4081.4461     1822.973 
    4150    292.70186   -5879.2132   -4701.6444   -4268.7588    1447.4638 
    4200    309.92968   -5980.0434   -4733.1653   -4527.7528    686.84928 
    4250    297.71304   -5947.4281   -4749.6987   -4257.8682    1644.5615 
    4300    304.29499   -5976.1094   -4751.9002   -4533.8095    729.24223 
    4350    307.13169   -5953.9218   -4718.3003   -4250.6491    1563.7118 
    4400    305.25154   -5897.1214    -4669.064   -4248.6663    1405.7074 
    4450    301.31455   -5861.0678   -4648.8492   -4058.2855    1974.7014 
    4500    308.39858   -5874.6723    -4633.954    -4145.348    1633.7795 
    4550    302.48387   -5812.6393   -4595.7165   -3970.7125    2089.8612 
    4600    307.51353   -5818.1919   -4581.0342   -3822.0177    2537.9666 
    4650    304.34746   -5822.9895   -4598.5693   -4046.1696      1847.09 
    4700    305.03884   -5809.8532   -4582.6515   -3841.3834    2478.6201 
    4750    308.65969   -5814.1502   -4572.3814   -3680.4105    2982.5335 
    4800      312.424   -5880.8654   -4623.9524   -4027.8463    1993.2339 
    4850    289.53895   -5845.7311   -4680.8869   -4265.0208     1390.555 
    4900    303.78897   -5930.2045   -4708.0312   -4402.5741     1021.374 
    4950    306.27959   -5920.8308   -4688.6374   -4505.1594    613.50601 
    5000    310.31214   -5900.5885   -4652.1717   -3882.8971    2572.2671 
    5050    324.39228   -5941.4805   -4636.4179    -4469.208    559.10924 
    5100    294.98616   -5848.1579   -4661.3991   -3891.1111    2575.6559 
    5150    302.64019   -5900.9651   -4683.4134   -4290.0966    1315.1558 
    5200    309.33807   -5890.1406   -4645.6426   -4257.6373    1297.3952 
    5250    319.02555    -5878.504   -4595.0324   -4026.5938    1900.7202 
    5300    321.88349   -5888.4712   -4593.5018   -4033.1968    1873.5236 
    5350    303.62398   -5853.4416    -4631.932   -3812.8655    2738.7591 
    5400    315.33479    -5929.817   -4661.1936    -4351.574    1035.2926 
    5450    308.68642   -5966.8958   -4725.0195   -4413.6075    1041.2858 
    5500    293.71023    -6013.959   -4832.3334   -4389.5651    1480.5096 
    5550    292.94589   -6047.8275   -4869.2769    -4486.813    1278.8662 
    5600    297.36728   -6003.5863    -4807.248   -4426.4356    1273.3439 
    5650    309.21828   -5952.4381    -4708.422   -4214.2831    1652.2802 
    5700    311.63788   -5917.3886   -4663.6383   -3953.0676    2375.9755 
    5750    307.30504   -5945.1818   -4708.8629   -4533.3508    586.86959 
    5800    306.43953   -5995.5116   -4762.6748    -4346.405    1391.9047 
    5850       304.17   -6034.1014   -4810.3951   -4568.1218    810.10277 
    5900    291.01463   -5976.6313   -4805.8503   -4438.4664    1228.4422 
    5950    299.71791   -5962.4215   -4756.6264    -4257.079     1670.365 
    6000    323.48698   -5985.2563   -4683.8358   -4188.6661     1655.727 
    6050    308.26693    -5881.756   -4641.5673   -3812.8945    2770.8802 
    6100    297.95236   -5840.8084   -4642.1163   -3801.9867    2809.1889 
    6150    305.32907   -5860.5832   -4632.2139   -4148.6821    1616.8127 
    6200    300.06448   -5828.0999   -4620.9104   -4204.2006    1393.3762 
    6250    299.88039   -5826.2295   -4619.7807   -3685.6215    3123.6011 
    6300    296.12821   -5840.5427   -4649.1893   -4128.1196    1742.3305 
    6350    306.62238   -5929.4821   -4695.9096   -4501.6045    649.70917 
    6400    307.76887   -5965.2482   -4727.0633   -4875.3864   -495.95636 
    6450    303.37768   -5991.6428   -4771.1241   -4560.6466    703.78541 
    6500    303.68744   -6036.7928   -4815.0279   -4569.5197    820.91948 
    6550    299.87351   -6041.1429   -4834.7218   -4474.2569     1205.307 
    6600    301.26131   -6039.8267   -4827.8224   -4595.2804    777.56376 
    6650    307.65896   -6063.8866   -4826.1438   -4259.2787    1895.4591 
    6700    303.24667   -6025.6561   -4805.6644   -4579.4957    756.25311 
    6750    315.82116   -6016.4915   -4745.9114   -4611.4843    449.49139 
    6800    311.35537   -5975.5852   -4722.9714   -4364.7749    1197.7221 
    6850    301.40154   -5958.3513   -4745.7828   -4553.1273    644.19326 
    6900    302.94974   -5968.0797   -4749.2826   -4436.2845    1046.5896 
    6950    313.23921    -6042.166   -4781.9733   -4199.2996    1948.3189 
    7000    297.23048   -6022.4374   -4826.6494   -4890.8377   -214.62997 
    7050    295.95642    -6012.595   -4821.9327   -4715.4136    356.17421 
    7100    309.31446   -6004.3103   -4759.9073   -4515.4929    817.26221 
    7150    315.16627   -5961.0238   -4693.0784   -4380.9821    1043.5741 
    7200    322.44111   -5984.4838   -4687.2709    -4376.256    1039.9582 
    7250     296.4171   -5912.2043   -4719.6887   -4212.2433     1696.774 
    7300    303.71365   -5995.7799   -4773.9096   -4451.3896    1078.4282 
    7350    308.75829   -6094.2413   -4852.0758   -4609.1089    812.42229 
    7400    295.45795   -6080.8751   -4892.2182   -4793.0581     331.5673 
    7450    305.50539   -6092.7802   -4863.7015   -4536.7473    1093.2554 
    7500    306.18979   -6031.8547   -4800.0226   -4664.3054    453.80507 
    7550    312.95827   -6024.3355   -4765.2731   -4563.8744    673.42823 
    7600    303.58148   -5968.8338   -4747.4951   -4359.9167    1295.9679 
    7650     315.8297   -5986.8842   -4716.2698   -4323.2906    1314.0265 
    7700    309.50817    -5911.608   -4666.4257   -4181.6986    1620.8094 
    7750    295.43169   -5846.5808   -4658.0296   -3831.5388    2763.5841 
    7800    306.67731   -5891.2918   -4657.4983   -4152.1528    1689.7523 
    7850    307.61795   -5885.5888    -4648.011   -3981.8619    2227.4407 
    7900    311.20912   -5913.4525   -4661.4271   -4331.7493    1102.3621 
    7950    304.44103   -5908.9513   -4684.1546   -4423.5727    871.32249 
    8000    303.78367   -5952.1777   -4730.0256   -4444.1312    955.96149 
    8050    307.28733   -6010.1511   -4773.9034   -4782.7151   -29.464041 
    8100    298.27177   -5994.6604   -4794.6833   -4520.6368    916.34484 
    8150    310.82294   -6049.6973   -4799.2255   -4507.8267    974.36685 
    8200    309.01679   -6058.5451   -4815.3397   -4577.0952    796.63176 
    8250    299.09579   -6040.1853    -4836.893   -4480.2614    1192.4894 
    8300    299.49941   -6025.8565   -4820.9404    -4727.807    311.41541 
    8350    318.67261   -6052.6103   -4770.5585    -4565.845     684.5123 
    8400    303.36946   -5961.5167   -4741.0311   -4315.2133    1423.8309 
    8450    312.87006   -5975.7146    -4717.007   -4564.3509    510.44491 
    8500    313.87416   -5974.3302   -4711.5831   -4503.5172     695.7216 
    8550    299.46078   -5909.8191   -4705.0585   -4267.3953    1463.4393 
    8600    302.93784   -5931.2053   -4712.4561   -4221.3032    1642.2959 
    8650    295.39677   -5884.8162   -4696.4055    -4062.267    2120.4049 
    8700    300.15312   -5846.8525   -4639.3065   -3874.0761    2558.7444 
    8750    314.81823   -5840.5242   -4573.9789   -3804.0661    2574.4011 
    8800    320.70263   -5846.5798    -4556.361    -3894.433    2213.3262 
    8850    299.13688   -5786.2631   -4582.8055   -3642.4923    3144.1785 
    8900    300.37803    -5861.126   -4652.6752   -4066.5792    1959.7625 
    8950    300.36727   -5908.5606   -4700.1531   -4311.1744    1300.6499 
    9000    306.68073   -5970.1337   -4736.3265    -4334.863    1342.3961 
    9050    290.33065   -5928.8171   -4760.7879   -4332.5678    1431.8638 
    9100    310.63663   -5964.6664   -4714.9441    -4721.175   -20.834601 
    9150     306.5374   -5902.4486    -4669.218   -4026.6978    2148.4311 
    9200    299.81142    -5817.558   -4611.3867   -4003.6963    2031.9688 
    9250    309.46481   -5787.3129    -4542.305   -3732.5928    2707.4805 
    9300    312.93063   -5818.7511   -4559.7999   -3728.4965    2779.6763 
    9350     302.7522   -5853.7318   -4635.7295   -3879.9965     2526.987 
    9400    303.19477   -5895.3355   -4675.5526   -4094.3863    1943.2788 
    9450    306.92618   -5910.5357    -4675.741   -4214.7678    1541.3821 
    9500    299.18356   -5860.1738   -4656.5284   -3988.2115    2234.6892 
    9550    304.37301   -5867.1064   -4642.5834   -3948.0106    2322.4825 
    9600     308.8633   -5864.0727   -4621.4847   -4058.0068    1884.1331 
    9650    307.74188   -5829.0807   -4591.0043    -4165.858     1421.586 
    9700    305.09822   -5821.3636    -4593.923   -4110.8078    1615.4197 
    9750    310.26814   -5854.0094   -4605.7696   -4000.8709    2022.6342 
    9800    307.48635   -5858.2794   -4621.2311   -3928.2552    2317.1429 
    9850    312.66118   -5887.7617   -4629.8945   -4068.5148    1877.1171 
    9900     309.8253   -5937.9467   -4691.4886   -4358.2948    1114.1188 
    9950    293.23325   -5945.1904   -4765.4838   -4591.5487    581.59652 
   10000    298.59383   -5985.3614   -4784.0886   -4474.1864    1036.2375 
   10050    310.57295   -6026.9563   -4777.4903   -4747.7931    99.300143 
   10100    300.76886   -6007.6338   -4797.6107   -4554.3456    813.41915 
   10150    298.89865   -6008.2761   -4805.7769   -4592.4254    713.39567 
   10200    297.27052   -6001.9634   -4806.0144   -4421.9429    1284.2416 
   10250    300.81739   -6018.9614    -4808.743   -4668.8023    467.92761 
   10300    309.53506   -6059.4792   -4814.1887   -5025.8963   -707.89875 
   10350    304.31722   -6068.8926    -4844.594   -4781.4497    211.13919 
   10400    302.85276   -6077.9257   -4859.5188   -4937.4349   -260.53271 
   10450     298.1833   -6046.9446   -4847.3234   -4654.9989    643.08651 
   10500     293.0685    -6004.825   -4825.7812   -4586.0648    801.55329 
   10550    302.07962   -5958.4661   -4743.1696   -4560.5436    610.65694 
   10600    324.41278   -5965.6676   -4660.5226   -4537.5938    411.04384 
   10650    307.84946   -5925.0185   -4686.5093   -4281.5916    1353.9462 
   10700    303.96983   -5967.5003   -4744.5993   -4836.9119   -308.67087 
   10750    300.51399   -5988.7674   -4779.7695   -4410.8966    1233.4215 
   10800    295.92056   -5965.3114   -4774.7934   -4339.1454     1456.701 
   10850     300.8231   -5952.3659   -4742.1245   -4351.3738    1306.5751 
   10900    299.95093   -5925.0359   -4718.3033   -3898.2748    2741.9755 
   10950    298.88295   -5907.4218   -4704.9858   -4326.9462    1264.0723 
   11000    303.76124   -5888.7596   -4666.6978   -4154.0889    1714.0392 
   11050    309.95773   -5862.9633   -4615.9724   -3626.0556    3310.0409 
   11100    307.52795   -5850.2153   -4612.9996   -4161.7062     1509.015 
   11150    306.24096   -5913.4827   -4681.4447   -4370.0076    1041.3697 
   11200    303.30698   -5931.7182   -4711.4839   -4004.7179    2363.2535 
   11250    306.71339   -5960.1103   -4726.1716   -4148.6655    1931.0399 
   11300    309.33043   -6009.0707   -4764.6034   -4814.8295   -167.94373 
   11350     303.2815   -6052.4344   -4832.3027    -4801.192    104.02634 
   11400    294.76257   -6078.5686   -4892.7093   -4855.6659    123.86445 
   11450    291.19306   -6060.6457   -4889.1469   -4939.2749   -167.61598 
   11500    311.65562   -6067.2918   -4813.4701   -4624.3648    632.32236 
   11550    318.00421   -6028.5695   -4749.2067   -4562.4023    624.62851 
   11600    317.50968   -6000.3322    -4722.959   -4516.3741    690.76977 
   11650    297.30675   -5937.5179   -4741.4231    -4363.384    1264.0707 
   11700    302.80793   -5980.2194   -4761.9928   -4725.8594    120.82147 
   11750    299.45689   -5983.7028   -4778.9578   -4682.8521    321.35397 
   11800    296.93305   -5961.8571   -4767.2658   -4292.8177    1586.4392 
   11850    308.24148   -5930.9467   -4690.8604    -4039.429    2178.2283 
   11900    312.56333   -5855.9861   -4598.5126   -4203.6247     1320.409 
   11950    314.55219   -5828.5797   -4563.1048   -3942.9737    2073.5674 
   12000    301.06877   -5809.2884   -4598.0587   -3771.3571    2764.2889 
   12050    303.89511   -5896.4633   -4673.8629    -4249.608    1418.6052 
   12100    313.80631   -5993.5674   -4731.0933   -4809.3625   -261.71321 
   12150    309.60463   -6005.0905   -4759.5201   -4825.6596   -221.15424 
   12200    297.36391   -5984.9888    -4788.664   -4276.4794    1712.6206 
   12250    317.50816   -6088.5421   -4811.1751   -4875.5169   -215.14347 
   12300    305.83599   -6060.8834   -4830.4747   -4929.5867   -331.40647 
   12350    310.52983    -6103.979   -4854.6865   -4659.6118    652.28232 
   12400    303.45713   -6084.3726   -4863.5342   -5098.5484   -785.83022 
   12450    310.80782   -6103.0927   -4852.6817   -4968.7473    -388.0951 
   12500    312.50041   -6123.2113   -4865.9909   -4495.6702    1238.2626 
   12550    296.12496   -6069.2651   -4877.9248   -4676.4762    673.59523 
   12600    310.03946   -6118.2415   -4870.9217   -4688.6551     609.4554 
   12650    307.26941   -6113.5438   -4877.3682   -4781.0198    322.16563 
   12700    306.58598   -6106.1246   -4872.6985   -5026.1785   -513.19992 
   12750    300.27705    -6050.682   -4842.6374   -4439.8473    1346.8321 
   12800     309.9925   -6087.6197   -4840.4889   -4863.9769   -78.538086 
   12850    304.52753   -6066.1718   -4841.0271   -4563.8227    926.90401 
   12900    307.54527   -6073.3692   -4836.0839   -4289.9167    1826.2501 
   12950    304.44358   -6044.2521   -4819.4452   -4710.4165     364.5653 
   13000    304.44347   -6007.2404   -4782.4339   -4866.2953   -280.41223 
   13050    310.33245     -5995.65   -4747.1516   -4406.2784     1139.797 
   13100    307.71681   -5973.0917   -4735.1162   -4800.0986   -217.28546 
   13150    309.95364   -5983.2362   -4736.2617    -4196.326    1805.4137 
   13200     296.1563   -5922.8415   -4731.3752   -4115.8296    2058.2347 
   13250    301.15386   -5905.2629   -4693.6909   -4066.0077    2098.8199 
   13300    309.88986   -5878.1689    -4631.451   -3957.8836    2252.2456 
   13350    322.33243   -5871.8456     -4575.07   -4081.3745    1650.7976 
   13400    317.14453   -5862.4034   -4586.4993   -3888.0106    2335.5761 
   13450    300.95631   -5875.0495   -4664.2722   -4251.3778    1380.6184 
   13500    300.75845   -5939.3752   -4729.3939    -4381.454    1163.4264 
   13550    291.54188   -5909.6247   -4736.7225   -4179.3971    1863.5608 
   13600    306.75999   -5899.1907   -4665.0646   -3880.2472    2624.2383 
   13650    311.61759   -5852.8584   -4599.1897   -3847.6503    2512.9649 
   13700    303.79433    -5847.977   -4625.7821   -3821.1173    2690.6031 
   13750    298.79542    -5862.511   -4660.4271   -3934.8828    2426.0436 
   13800    312.21274   -5939.8389   -4683.7759   -4134.9761    1835.0527 
   13850    309.86344   -6032.9135   -4786.3019    -4505.955    937.41201 
   13900    280.92186   -6015.4434   -4885.2666   -4672.8593    710.23853 
   13950    301.71198   -6109.8014   -4895.9839   -5154.9757   -866.00547 
   14000     308.1507   -6097.5414   -4857.8204   -4877.5419   -65.943892 
   14050    301.36372   -6051.2496   -4838.8332   -4701.6623    458.66602 
   14100    312.66124   -6108.8871   -4851.0197   -4925.9296    -250.4807 
   14150    300.44678   -6110.9905    -4902.263   -5122.6009   -736.75636 
   14200    285.41087   -6077.0587   -4928.8222   -4850.8839    260.60693 
   14250    291.59651   -6047.1056   -4873.9837   -4671.3185    677.66305 
   14300    316.90081   -6061.9324   -4787.0087   -4601.2265    621.21057 
   14350    315.60549    -6037.243   -4767.5306   -4794.2114   -89.214385 
   14400     303.3922   -6021.3107   -4800.7336   -4663.3987    459.21427 
   14450    300.09491   -6024.7503   -4817.4384   -4895.0618   -259.55372 
   14500    304.25141   -6016.1108    -4792.077   -4702.2344    300.41192 
   14550    320.25112   -6028.2183   -4739.8161   -4657.2128    276.20541 
   14600    314.41467    -5993.603   -4728.6814   -4572.7231    521.48645 
   14650    300.84462   -5985.5735   -4775.2456   -4362.2009    1381.1207 
   14700    304.78244   -6069.4681   -4843.2978    -4413.516    1437.0859 
   14750    307.72969   -6131.1307   -4893.1034   -5168.6495   -921.35914 
   14800    305.48237    -6149.281   -4920.2949   -4601.6349    1065.5215 
   14850    299.22001   -6123.2227   -4919.4307   -4818.0079    339.13289 
   14900    302.07532   -6094.9236   -4879.6444   -4593.7788    955.86516 
   14950    303.84294   -6068.1142   -4845.7237   -4568.1182    928.24518 
   15000     311.4373   -6076.7423   -4823.7989   -4644.1323    600.76137 
   15050      325.707   -6141.0139   -4830.6621   -4892.4582   -206.63095 
   15100    301.58826   -6108.4146   -4895.0949   -4772.9925    408.28045 
   15150    297.34637   -6138.8549   -4942.6007   -5142.1804   -667.34589 
   15200     300.1026   -6138.6874   -4931.3446   -4992.8971   -205.81639 
   15250    312.07997   -6143.4903   -4887.9614     -4926.91   -130.23453 
   15300    309.49963   -6126.6561   -4881.5082   -4800.4028     271.1967 
   15350    303.96436   -6132.4952   -4909.6162    -5129.577   -735.49526 
   15400    301.24053   -6129.3765   -4917.4558    -5057.972   -469.85191 
   15450     293.6969   -6080.3625   -4898.7905   -4728.8648    568.18999 
   15500    304.97654   -6064.0601    -4837.109   -4584.9271    843.23485 
   15550    310.78784   -5993.9502   -4743.6196   -4343.4217    1338.1646 
   15600    310.40679   -5948.3283   -4699.5307   -3960.3212    2471.7367 
   15650    301.41536   -5952.8007   -4740.1766   -4146.5742    1984.8619 
   15700    303.54792   -6027.6853   -4806.4817   -4575.4713    772.44251 
   15750    302.83695   -6090.7781   -4872.4348   -5047.1836   -584.31723 
   15800     302.7161   -6116.4241    -4898.567   -4924.9028   -88.060593 
   15850    306.29109   -6102.7006   -4870.4609   -4898.4989   -93.752116 
   15900    302.91135   -6035.1144   -4816.4717   -4473.5256    1146.7283 
   15950    311.07985   -6009.0464   -4757.5411   -4224.1751    1783.4461 
   16000    307.50419   -5926.8577   -4689.7376   -4203.2534    1626.6848 
   16050    309.86728   -5887.3709   -4640.7438    -4106.898    1785.0505 
   16100    319.05893   -5948.4741   -4664.8681   -4221.1475    1483.6938 
   16150    296.70003   -5915.2465   -4721.5926   -4212.8281    1701.1847 
   16200    297.82608   -5951.2053   -4753.0211   -4332.0569     1407.602 
   16250    307.36194   -5986.0989   -4749.5511   -4299.5258    1504.7753 
   16300    313.57338   -6009.1656   -4747.6285   -4552.4211    652.72598 
   16350    304.03639   -5955.1182   -4731.9495   -4254.6816    1595.8676 
   16400    309.24757   -5949.5886   -4705.4547   -4029.1137    2261.5196 
   16450    313.21763   -5957.9865   -4697.8806   -4321.7763    1257.6015 
   16500    309.96199   -5927.2298   -4680.2217   -4251.4717    1433.6355 
   16550    304.97395   -5854.9282   -4627.9875   -3848.6518    2605.9089 
   16600    311.12277   -5870.3529   -4618.6749   -3936.5846     2280.744 
   16650    314.88949   -5917.8795   -4651.0476   -3940.0754    2377.3182 
   16700     298.3557   -5908.6837   -4708.3689   -4169.7458    1801.0243 
   16750     297.5824   -5934.9254   -4737.7217   -4261.3675    1592.8124 
   16800    292.09176   -5897.5484   -4722.4341   -4047.7623    2255.9381 
   16850    310.23537   -5921.6786   -4673.5707   -3888.7998    2624.0827 
   16900    310.35473   -5898.9855   -4650.3974   -3965.7059    2289.4416 
   16950    293.96078   -5827.8481   -4645.2145   -4027.6816    2064.8799 
   17000    302.29668   -5828.5095   -4612.3398   -3718.7728    2987.8707 
   17050    305.71222   -5810.3847   -4580.4739   -3906.5362    2253.4838 
   17100    307.00765   -5819.2008   -4584.0783   -4068.5763    1723.7133 
   17150    305.26391   -5884.5237   -4656.4165   -4249.7421    1359.8202 
   17200    295.49055   -5912.5752   -4723.7872     -4563.82     534.8912 
   17250    303.54038   -5944.6167   -4723.4434   -4407.0076    1058.0843 
   17300    311.20116   -5970.7383   -4718.7449   -4595.4627     412.2255 
   17350    302.34053    -5986.827   -4770.4808   -4221.3857    1836.0405 
   17400    295.20599   -6029.9337   -4842.2904    -4712.013    435.61612 
   17450    295.52768   -6041.3317   -4852.3943   -4793.6697    196.36079 
   17500    302.80069   -6032.8534    -4814.656   -4765.2635    165.15655 
   17550     306.3048   -6011.2482   -4778.9534   -4428.9979     1170.166 
   17600    312.37992   -6005.5491   -4748.8135   -4603.7982    484.89574 
   17650    298.84648   -5936.5806   -4734.2914   -4018.0297    2395.0046 
   17700    301.07536   -5965.6904   -4754.4341   -4441.1542    1047.5319 
   17750    298.82749    -5989.495   -4787.2821   -4739.3585    160.24485 
   17800    310.22927   -6040.9774   -4792.8941   -4909.4657   -389.78716 
   17850    297.64922   -5997.7022   -4800.2297   -4575.8869    750.14761 
   17900    306.92333   -6054.3747   -4819.5915    -5129.102   -1034.9276 
   17950    303.92616   -6070.7625   -4848.0372   -5047.9565   -668.48151 
   18000    295.48457   -6087.7164   -4898.9524   -4921.2482   -74.551647 
   18050    290.36479   -6095.0437   -4926.8772   -4962.1847   -118.05987 
   18100     301.4219   -6118.2691   -4905.6187   -4864.3171    138.10233 
   18150    306.31059   -6112.9901    -4880.672   -5009.0573   -429.28917 
   18200    307.38833   -6079.4922   -4842.8383   -4611.5933    773.22703 
   18250     301.1653   -6042.5395   -4830.9214   -4634.8921    655.47422 
   18300    317.96682   -6135.9566   -4856.7443    -5026.634   -568.07003 
   18350    305.21841   -6147.2654   -4919.3413   -5071.6421   -509.25692 
   18400    298.11098   -6179.3417   -4980.0115   -4513.6621    1559.3588 
   18450    290.51205   -6142.9374   -4974.1784   -5026.4545    -174.7984 
   18500     304.0631   -6124.2296   -4900.9533   -5152.0035   -839.45067 
   18550    310.27744   -6086.1831   -4837.9059   -4721.8271    388.13917 
   18600    303.71919   -6027.7183   -4805.8257   -4899.4398   -313.02288 
   18650     312.9396   -6050.0402   -4791.0529     -4666.68    415.87267 
   18700    311.77046   -6038.6149   -4784.3312   -4271.0487    1716.2918 
   18750    316.44286   -6057.0925   -4784.0112   -5074.3482   -970.81615 
   18800    299.48562   -6018.7211   -4813.8606   -4705.3588    362.80359 
   18850      312.143   -6114.5829   -4858.8004   -4904.9083   -154.17339 
   18900    303.02424   -6109.6717   -4890.5749    -4994.225   -346.58093 
   18950    293.25212   -6073.8636   -4894.0811   -5010.7067   -389.96765 
   19000    299.82014   -6025.2573   -4819.0509   -4626.7124    643.13329 
   19050    316.01195   -6004.1086   -4732.7609   -4006.4386     2428.645 
   19100    314.56114   -6013.3536   -4747.8427   -4570.1057    594.30909 
   19150    292.27529   -5977.6962   -4801.8435   -4276.8712    1755.3795 
   19200    296.82681   -6003.6963   -4809.5324   -4164.6999    2156.1629 
   19250    299.59915   -6031.7848   -4826.4674   -4511.2612    1053.9728 
   19300    305.92152   -6084.7283   -4853.9754   -4784.1824    233.37078 
   19350    309.09115   -6152.7677   -4909.2631   -5298.4249   -1301.2624 
   19400    296.07365   -6167.8091   -4976.6752   -5035.1017    -195.3639 
   19450     293.6745   -6155.8511   -4974.3693    -5144.747    -569.7016 
   19500      304.047   -6122.7041   -4899.4926   -5200.9114   -1007.8711 
   19550    315.87206   -6111.0575   -4840.2726   -4649.2577    638.70757 
   19600     311.2859   -6115.3491   -4863.0148   -4986.0105   -411.26775 
   19650    307.79205   -6178.6617   -4940.3835   -4971.1126   -102.75088 
   19700    296.49256   -6195.7536   -5002.9344   -4497.1525    1691.2116 
   19750    298.94022   -6177.4611   -4974.7947   -5120.3942   -486.84941 
   19800    308.66948   -6122.9996   -4881.1914   -4926.6363   -151.95661 
   19850    317.83024   -6075.6609   -4796.9981   -4658.1191     464.3776 
   19900    307.30045   -6023.0055    -4786.705   -4260.4196    1759.7704 
   19950    306.71532   -6080.3287   -4846.3823   -4919.0681   -243.04363 
   20000    307.81577   -6163.5754   -4925.2017   -4914.6295    35.350933 
   20050    291.00559   -6167.3092   -4996.5646   -4988.0075    28.612725 
   20100    294.83314   -6172.3021    -4986.159    -5125.618   -466.31723 
   20150    308.29597   -6122.9241   -4882.6186   -4957.8179   -251.44803 
   20200     306.8642   -6020.1592   -4785.6138   -4511.2534    917.39464 
   20250    305.88628   -5944.8655   -4714.2545   -4059.6891    2188.7071 
   20300    319.59114   -5961.4489   -4675.7018   -4339.8093     1123.143 
   20350    306.78395   -5905.6487   -4671.4263   -4262.1612    1368.4827 
   20400    309.64876   -5931.6624   -4685.9145   -4134.8238    1842.7133 
   20450    313.20384   -6018.7829   -4758.7326   -4440.3591    1064.5633 
   20500    292.14792   -6036.1399   -4860.7997   -4402.1754    1533.5278 
   20550    300.15061   -6084.1275   -4876.5916   -5172.1649   -988.32497 
   20600    313.00513   -6087.4064   -4828.1555   -4799.9593    94.281225 
   20650    312.70349   -6059.9693   -4801.9319   -4735.6499     221.6307 
   20700    303.11235   -6003.6177   -4784.1665   -4280.4908    1684.1687 
   20750    303.04071   -5979.9422   -4760.7791   -4007.3329    2519.3408 
   20800    306.55072   -5957.3076   -4724.0234   -4533.2757    637.81387 
   20850    308.76339   -5897.3084   -4655.1224   -4197.3782    1530.5853 
   20900    309.42485   -5818.1934   -4573.3463   -3850.2926    2417.7153 
   20950    312.29349   -5824.0659   -4567.6779   -3997.5413    1906.3981 
   21000    300.27101   -5808.1192   -4600.0989   -4215.6279    1285.5773 
   21050    317.80005   -5923.8391   -4645.2977   -4062.5148    1948.6841 
   21100    306.71639   -5910.6292   -4676.6785   -4425.2959     840.5623 
   21150    301.95641   -5892.4538    -4677.653   -4182.4844    1655.7231 
   21200    311.82453   -5938.3443   -4683.8431   -4060.8586    2083.1085 
   21250     304.0777   -5940.5897   -4717.2547   -3941.7557    2593.0801 
   21300    291.41141   -5910.2164   -4737.8392    -4199.079    1801.4829 
   21350    300.78358   -5897.5146   -4687.4322   -4145.2861    1812.8049 
   21400    314.36194   -5887.1907   -4622.4811   -4077.5526    1822.1083 
   21450    304.86378   -5818.3869   -4591.8894   -3856.5804    2458.6944 
   21500    310.57447   -5869.7053   -4620.2332   -4027.8083    1980.9248 
   21550    298.86042   -5873.7355   -4671.3902   -4337.5718    1116.2074 
   21600    309.33484   -5941.2585   -4696.7735   -4356.4331    1138.0156 
   21650    316.72489   -5992.7052   -4718.4892   -4160.1649    1866.9007 
   21700    304.98251   -6001.1023   -4774.1271   -4286.0494    1632.0131 
   21750    294.99224    -6005.171   -4818.3878   -4619.7641    664.14943 
   21800     292.2004   -5975.6245   -4800.0731    -4135.406     2222.485 
   21850    304.84436   -5947.3555   -4720.9362   -4501.0966    735.09017 
   21900    306.08365   -5871.5733   -4640.1682    -3769.282    2912.0315 
   21950    309.03365   -5838.8622   -4595.5889   -3776.3179    2739.4428 
   22000    311.61625    -5815.094   -4561.4307   -3846.5346    2390.4385 
   22050    309.94251   -5807.0639   -4560.1342   -3940.8644    2070.6873 
   22100    292.53627   -5769.5127     -4592.61   -3649.0364    3155.0807 
   22150    295.25041   -5805.5568   -4617.7349   -3616.7629    3347.0068 
   22200    303.45497   -5849.6696   -4628.8399   -4214.5955    1385.1325 
   22250    308.12644   -5902.9595    -4663.336   -3786.1469    2933.1072 
   22300    314.75876   -5978.6317   -4712.3257    -4069.553    2149.2755 
   22350    300.56268   -5952.3281   -4743.1344   -4248.4224    1654.1965 
   22400     301.3416   -5965.6304    -4753.303   -4297.6645    1523.5445 
   22450    297.20507    -5948.459   -4752.7733   -4137.8026    2056.3124 
   22500    297.67221   -5919.0881    -4721.523   -4080.8712    2142.1839 
   22550    301.05363   -5861.8401   -4650.6713   -4202.3467    1499.0885 
   22600    316.68067   -5842.2643   -4568.2263   -3623.1765    3160.0168 
   22650    303.54014   -5778.9354   -4557.7631   -3603.1959    3191.8403 
   22700      309.428   -5874.0496   -4629.1898   -4019.9394    2037.1852 
   22750    297.26564   -5946.4471   -4750.5177   -4490.4017    869.76461 
   22800    305.28181   -6076.5059   -4848.3267   -4963.9892   -386.74748 
   22850    303.44655   -6140.0588    -4919.263   -5055.3561   -455.06204 
   22900    296.10322     -6146.67   -4955.4171   -5142.8942   -626.87765 
   22950    314.07947   -6197.2743   -4933.7012   -4891.4549    141.26131 
   23000    307.86809    -6135.738   -4897.1539   -5004.2126   -357.97841 
   23050    300.72951   -6045.3258    -4835.461   -4862.9047    -91.76517 
   23100    304.02659   -5982.6555   -4759.5262   -4444.4602    1053.5039 
   23150    307.33123   -5941.1632   -4704.7389   -4180.5233    1752.8493 
   23200    311.51247   -5936.0326   -4682.7867   -4239.5782    1481.9815 
   23250    308.52617   -5889.1251   -4647.8935   -4229.7113    1398.2994 
   23300    313.80644   -5875.1497    -4612.675   -4269.4492    1147.6635 
   23350    300.61765   -5828.4617   -4619.0468   -3841.3122    2600.5554 
   23400    301.85923   -5838.4107   -4624.0008   -4139.9244    1618.6335 
   23450     312.6917   -5872.2817   -4614.2917   -4127.4765    1627.7917 
   23500    319.02678   -5933.4214   -4649.9447   -4143.6281    1692.9996 
   23550    308.13409    -5992.164   -4752.5097   -4595.2392    525.87422 
   23600    294.63085   -6046.9623   -4861.6329   -4782.9148    263.21433 
   23650    302.42494   -6128.9681   -4912.2823   -5165.2363   -845.81641 
   23700    295.67561   -6102.5475    -4913.015   -4904.9139    27.088089 
   23750    301.14469     -6088.07   -4876.5348   -4974.6995    -328.2391 
   23800    309.65359    -6058.401   -4812.6336   -4673.3929    465.58709 
   23850    311.85969   -6000.4123   -4745.7696   -4451.0041    985.62382 
   23900     303.3297   -5952.4661   -4732.1404   -4153.0951    1936.1868 
   23950    300.14527   -5927.6703   -4720.1559   -4367.9136    1177.8127 
   24000    299.64552   -5914.3512   -4708.8473   -4199.9248    1701.7128 
   24050    303.88394   -5908.0918   -4685.5364   -4201.9553    1616.9775 
   24100    309.24368   -5920.9281   -4676.8098    -3831.571    2826.2728 
   24150    296.80518   -5948.1312   -4754.0543   -4304.7444     1502.383 
   24200     305.3247   -6071.0438    -4842.692   -4993.9547   -505.78549 
   24250    284.04633   -6015.2397   -4872.4929    -4686.892    620.60434 
   24300    298.49093   -6031.5638   -4830.7049   -4643.4079    626.27578 
   24350    312.94454   -6029.7602   -4770.7531   -4486.9438    948.98899 
   24400    302.16309   -5941.2234    -4725.591   -4173.6451    1845.5729 
   24450     306.5027   -5915.6667   -4682.5757   -4162.8075    1737.9782 
   24500    311.75468   -5890.6465   -4636.4262   -4028.1741    2033.8471 
   24550    306.89672   -5825.0651   -4590.3889   -3652.0963     3137.422 
   24600    312.95422   -5870.1249   -4611.0788   -3917.4487    2319.3303 
   24650    301.14853   -5839.7507      -4628.2   -3938.0067    2307.8384 
   24700    299.08189   -5830.5044    -4627.268   -4111.8215    1723.5278 
   24750    303.47595   -5874.6022   -4653.6881   -4166.2461    1629.8873 
   24800     306.1157   -5910.1874   -4678.6533   -4013.3077    2224.7539 
   24850    311.97567    -5955.186   -4700.0767   -4106.4365    1984.9883 
   24900    298.23419   -5922.8229    -4722.997   -4261.5799    1542.8663 
   24950    300.73018   -5911.2464   -4701.3788   -4242.1859    1535.4295 
   25000    305.33005   -5865.8382   -4637.4649   -3977.2679    2207.5383 
   25050    310.43827   -5829.4811    -4580.557   -3737.8201     2817.907 
   25100     319.9258   -5850.4045    -4563.311   -3889.7052    2252.3739 
   25150    298.50782   -5795.7205   -4594.7937   -3606.6214    3304.2078 
   25200    294.32034   -5815.9701     -4631.89   -4269.4906    1211.7754 
   25250     319.4784   -5926.7769   -4641.4833   -4546.3389    318.13976 
   25300    318.13382   -5946.8884   -4667.0043   -4585.9203     271.1251 
   25350    311.06292   -5982.1799   -4730.7427   -4580.8141    501.32486 
   25400    301.42475   -6038.4731   -4825.8112   -4638.1551    627.47636 
   25450    308.24034   -6127.5242   -4887.4425   -5122.6817   -786.58264 
   25500    290.68768   -6092.3945   -4922.9289   -5007.8563   -283.97629 
   25550    306.54484   -6145.4297   -4912.1692   -4946.3846   -114.40806 
   25600     297.9885   -6079.3587   -4880.5212   -5112.5474   -775.83918 
   25650    302.04148   -6012.0887   -4796.9456   -4304.8446    1645.4659 
   25700    321.49998    -6018.591   -4725.1645   -4399.1251    1090.1962 
   25750    310.08814   -5969.5438   -4722.0282   -4274.8625    1495.2131 
   25800    307.78238    -6015.363   -4777.1238   -4556.4811    737.77522 
   25850    283.89771    -5959.146   -4816.9971   -4359.6292    1529.3268 
   25900    295.88452    -5928.962    -4738.589    -4524.415    716.14562 
   25950    308.38865   -5881.0339   -4640.3556   -3811.5035    2771.4796 
   26000    320.80883   -5879.4437   -4588.7977   -3723.6373    2892.8858 
   26050    317.18319    -5896.728   -4620.6683   -4014.4193    2027.1491 
   26100    299.20568   -5906.0826   -4702.3483   -4136.4025    1892.3848 
   26150    302.09866   -5973.4584   -4758.0852   -4298.3643    1537.1948 
   26200    307.60449   -6012.0492   -4774.5256    -4667.823    356.78735 
   26250    307.96755   -6029.2105   -4790.2263   -4775.8062     48.21729 
   26300    310.93407   -6041.5685   -4790.6497   -4819.3201   -95.866752 
   26350     299.6254   -6050.4227   -4844.9998   -4730.0868    384.24109 
   26400    300.17286   -6115.2122   -4907.5868   -5350.6561   -1481.5161 
   26450    308.81838   -6171.6686   -4929.2614   -5199.5715   -903.85096 
   26500    298.92602   -6161.5447   -4958.9354   -5036.8516   -260.53291 
   26550    291.47737   -6132.6459   -4960.0033   -4873.7825    288.30141 
   26600    302.47517    -6110.806   -4893.9182   -4987.6382    -313.3769 
   26650    303.87016   -6055.7701     -4833.27   -4605.1603    762.74327 
   26700    317.46837   -6074.3308   -4797.1238   -4334.7134    1546.1879 
   26750    317.21676   -6119.9515   -4843.7568   -5034.2703   -637.03079 
   26800    291.85518   -6098.0778   -4923.9152   -5046.0753   -408.47347 
   26850    310.52744    -6205.565    -4956.282   -4817.6351    463.60168 
   26900    302.27231   -6199.1195   -4983.0478   -4946.4544    122.35935 
   26950    296.01583   -6172.3777   -4981.4764   -5108.5405   -424.87134 
   27000    313.75561   -6192.3118   -4930.0416   -5111.9267   -608.17936 
   27050    303.11422   -6120.0743   -4900.6155   -4889.3038    37.823364 
   27100    310.39657   -6148.8089   -4900.0525    -5037.292   -458.89548 
   27150    304.94537   -6183.2096   -4956.3839   -5251.7956   -987.78467 
   27200    294.80594    -6196.868   -5010.8343   -5390.5827   -1269.7865 
   27250    296.53301     -6196.97   -5003.9881    -5182.176   -595.81691 
   27300     310.1353   -6180.8449   -4933.1396   -5206.7373   -914.84394 
   27350    305.48381   -6095.0798   -4866.0879   -4994.8819   -430.65573 
   27400    309.30651   -6084.5696   -4840.1986   -4594.6144    821.17396 
   27450    296.50582   -6033.9807   -4841.1082   -4527.3907     1048.995 
   27500    313.48109   -6104.1598    -4842.994   -4959.5097   -389.59997 
   27550    288.79187   -6028.6314   -4866.7928   -4797.4676    231.80661 
   27600    293.57141   -6005.0484   -4823.9813   -4513.0515    1039.6735 
   27650    325.51274   -6033.3591   -4723.7888   -4592.8876    437.70176 
   27700    319.33431   -5939.1158    -4654.402   -3946.6956    2366.3977 
   27750    302.73538   -5884.6417    -4666.707   -4022.6145    2153.6884 
   27800    300.19001   -5925.8561   -4718.1617    -4226.387    1644.3749 
   27850    310.05963   -6041.0874   -4793.6866   -4671.5145    408.51347 
   27900    300.71973   -6064.6798   -4854.8543   -4820.1598    116.00979 
   27950    309.45342   -6127.4922   -4882.5301   -5007.8159    -418.9251 
   28000    305.08998   -6132.2083   -4904.8008   -4944.0498    -131.2391 
   28050    298.54636    -6139.653   -4938.5711   -5043.3039    -350.2008 
   28100    307.38034   -6208.4468    -4971.825   -4877.0636    316.85906 
   28150    303.71696   -6220.5505   -4998.6668   -4860.2372    462.87491 
   28200    296.52238   -6162.4943   -4969.5552   -4997.1408   -92.239453 
   28250    313.30363   -6146.1799   -4885.7281   -5113.4347   -761.39542 
   28300    306.35147   -6053.5074   -4821.0248    -4507.719    1047.6186 
   28350     308.4638   -6023.7376   -4782.7568   -4447.8952    1119.6957 
   28400    319.60884   -6097.2971   -4811.4788   -4844.6721    -110.9905 
   28450    302.42617   -6095.2678   -4878.5771   -5021.2998   -477.23004 
   28500    303.05034    -6141.063   -4921.8611   -5165.9981   -816.33459 
   28550    299.71255   -6150.3023   -4944.5287   -5125.0411   -603.58963 
   28600    305.62653   -6156.8791    -4927.313   -5276.8186   -1168.6618 
   28650    305.56051   -6143.3867   -4914.0862   -4959.8384   -152.98402 
   28700    294.70582   -6064.1046   -4878.4737   -4724.0858    516.23557 
   28750    300.13579   -6019.2712   -4811.7949   -4034.1399    2600.2892 
   28800    311.66569   -5988.5505   -4734.6883   -4271.1515    1549.9543 
   28850    312.16661   -5954.9923   -4699.1148   -4002.6542    2328.7945 
   28900    297.54676   -5889.8447   -4692.7844   -3880.0667    2717.5302 
   28950    297.62608   -5876.5972   -4679.2177   -3640.5087    3473.1901 
   29000    317.96246   -5955.0385   -4675.8438   -4118.3728    1864.0473 
   29050    289.42158   -5905.9231   -4741.5512   -3753.7738    3302.8873 
   29100    290.45251   -5972.0869   -4803.5674   -4042.3753    2545.2409 
   29150    306.22682   -6033.0367   -4801.0556   -4665.1468    454.44613 
   29200    299.64805   -5995.1381   -4789.6241   -4543.8282    821.88152 
   29250    306.72561   -5965.7529   -4731.7651   -4642.8012    297.47355 
   29300    317.78939   -5918.1314   -4639.6329   -3829.2609    2709.6869 
   29350    307.65207   -5835.6948   -4597.9798   -3578.6147    3408.5085 
   29400    309.57944   -5849.2673   -4603.7983   -3815.0696    2637.3167 
   29450    295.64849   -5790.1433   -4600.7199    -4145.409    1522.4489 
   29500    315.31135   -5875.3051    -4606.776   -3923.1578    2285.8529 
   29550    310.79962   -5873.9623   -4623.5843   -4003.7654    2072.5236 
   29600    308.08895   -5879.1752   -4639.7025   -4354.7528    952.80252 
   29650    309.63425   -5886.5313   -4640.8418   -4039.5285    2010.6452 
   29700    292.98431   -5830.4054   -4651.7002   -3934.5791    2397.8785 
   29750    302.85967    -5888.891   -4670.4563   -4087.2438    1950.1209 
   29800    312.73782   -5963.0288   -4704.8533   -4677.0881    92.840258 
   29850    311.26399   -5988.1121    -4735.866   -4720.7303    50.609857 
   29900    300.53133   -5971.6562   -4762.5887   -4478.4811     949.9865 
   29950    293.23485   -5926.2125   -4746.4994   -4228.9816    1730.4537 
   30000    316.62793   -5952.5141   -4678.6883   -4182.0747     1660.555 
   30050    312.75592   -5912.9909   -4654.7426   -3983.3435    2244.9953 
   30100    301.53536   -5881.8844   -4668.7775   -3956.1029    2383.0104 
   30150    292.75999    -5839.905   -4662.1023   -4004.5209    2198.7923 
   30200    294.47024   -5831.8057   -4647.1225   -4024.7106    2081.1939 
   30250    303.44746   -5844.8272   -4624.0277   -3896.7181    2431.9463 
   30300    303.32663    -5775.972   -4555.6586   -3527.1038     3439.237 
   30350    310.77336   -5784.1663   -4533.8941   -3838.0381     2326.773 
   30400    319.31197    -5863.274     -4578.65   -3864.0805    2389.3465 
   30450    306.32416   -5925.8073   -4693.4346     -4528.52    551.43433 
   30500    298.94784   -5996.0755   -4793.3784     -4877.25   -280.44608 
   30550    276.82802   -5952.7778    -4839.071   -4496.6141    1145.0926 
   30600    300.97603   -6013.4715   -4802.6148   -4586.6293    722.20302 
   30650    305.14175   -5967.2202   -4739.6044   -4340.5155    1334.4563 
   30700    306.25638   -5918.7509   -4686.6508   -4113.9651    1914.9217 
   30750    306.61157   -5866.5201   -4632.9911   -4013.7122    2070.7179 
   30800    315.32852    -5879.234   -4610.6359    -4283.643    1093.3848 
   30850    316.95752   -5881.1442   -4605.9924   -3887.5402    2402.3293 
   30900    306.78153   -5887.1462   -4652.9334   -4036.4321    2061.4303 
   30950    312.88532   -6016.0069   -4757.2379   -4752.8189    14.776091 
   31000    300.67844   -6067.3267   -4857.6673   -4873.6565    -53.46415 
   31050    301.79691   -6110.2866   -4896.1275   -5013.1378   -391.25385 
   31100    306.30709   -6108.2793   -4875.9752   -4938.3826   -208.67506 
   31150    311.75282   -6116.4053   -4862.1925   -5076.0119   -714.95993 
   31200    319.45683   -6138.0321   -4852.8253   -4975.7485   -411.02518 
   31250    305.15288   -6131.3089   -4903.6483    -4906.576   -9.7893464 
   31300    297.86143   -6183.0486   -4984.7223   -5316.8206   -1110.4558 
   31350     294.6008   -6220.8029   -5035.5944   -4939.5574    321.12437 
   31400    295.65568   -6198.5362   -5009.0838   -5360.6351   -1175.5018 
   31450     302.3027   -6150.5803   -4934.3863   -5211.1862   -925.55133 
   31500    309.57232   -6099.1705   -4853.7301   -4735.1425    396.52795 
   31550    313.55522    -6053.656    -4792.192   -4471.1701     1073.419 
   31600    312.79091   -6029.2438   -4770.8547    -4599.759    572.10251 
   31650    306.24885    -6006.749   -4774.6793   -4556.3892    729.90892 
   31700    293.85935   -5957.5893   -4775.3638   -4427.5904    1162.8695 
   31750    311.73057   -6009.1984   -4755.0752   -4104.5287     2175.269 
   31800    307.61647   -6047.4451   -4809.8732   -4896.2311   -288.75972 
   31850    288.48034   -6044.1077   -4883.5224   -4914.5943   -103.89671 
   31900    303.37707   -6135.1945   -4914.6782    -5216.461   -1009.0882 
   31950    296.42339   -6124.8646   -4932.3236    -5197.157   -885.53841 
   32000    302.75912   -6141.0391   -4923.0089   -5332.6007    -1369.575 
   32050     289.3501     -6064.82   -4900.7357   -4941.5422   -136.44701 
   32100    320.60237   -6137.3543   -4847.5389   -4890.3472    -143.1406 
   32150    317.17285   -6115.3462   -4839.3281   -4778.6271    202.96927 
   32200    296.78554   -6069.5851   -4875.5872   -5051.9531   -589.72459 
   32250    295.92222   -6050.6604   -4860.1358   -4753.3847    356.94949 
   32300     305.3284   -6039.7281   -4811.3614   -4625.1409    622.67627 
   32350    303.85183   -6002.2349   -4779.8086   -4455.1552    1085.5623 
   32400    297.31187   -5954.8832   -4758.7679   -4309.2483    1503.0841 
   32450    312.90559   -5988.6017   -4729.7512   -4451.3943    930.75763 
   32500    310.96074   -5986.5514   -4735.5253    -4527.792    694.60958 
   32550    310.62313   -6004.3002   -4754.6323   -4743.8996    35.887512 
   32600     293.6775   -5940.6682   -4759.1743   -4268.8497    1639.5262 
   32650    311.29744   -5973.7701   -4721.3894   -4173.1105     1833.311 
   32700    319.09314   -5969.5784   -4685.8348   -4084.1678    2011.8278 
   32750    313.15855   -5945.3465   -4685.4784    -4193.481    1645.1195 
   32800    315.21466     -5985.21     -4717.07   -4588.6977    429.24577 
   32850    298.46221   -5920.1324   -4719.3891    -4059.738    2205.7126 
   32900     294.8197   -5858.6158   -4672.5267   -3765.2595    3033.6809 
   32950    321.68059   -5910.3855   -4616.2323   -4038.5413    1931.6582 
   33000    317.77573   -5882.7152   -4604.2717    -3932.194    2247.2642 
   33050     298.6335   -5836.3998   -4634.9673   -3958.1586    2263.0837 
   33100    312.89872   -5906.1809    -4647.358   -4117.9001    1770.3786 
   33150    308.01749   -5919.7053   -4680.5201   -4110.3219    1906.6041 
   33200    317.53141    -6035.392   -4757.9314   -4796.4696   -128.86255 
   33250     300.6903   -6078.3084   -4868.6013   -5084.5828   -722.18956 
   33300    300.32918   -6145.9985   -4937.7441   -5523.1599    -1957.488 
   33350    300.95975   -6164.5269   -4953.7358   -5555.5589     -2012.35 
   33400    311.62474   -6204.3315   -4950.6341   -5118.3359   -560.75401 
   33450    304.22303   -6192.8958   -4968.9762   -5514.3693   -1823.6617 
   33500    305.97329   -6196.4986   -4965.5375   -5655.7886   -2308.0319 
   33550    315.62965   -6217.9125   -4948.1029   -5272.2474   -1083.8607 
   33600    306.95833   -6210.0573   -4975.1332   -5510.9828   -1791.7506 
   33650    298.41471   -6211.8453   -5011.2931    -5297.459   -956.86924 
   33700     301.3461   -6213.2555   -5000.9101   -5445.5827    -1486.877 
   33750    302.41271   -6158.2903   -4941.6537   -5052.4902   -370.61037 
   33800    315.99454    -6168.892   -4897.6144   -5116.0015   -730.23344 
   33850    316.00714   -6170.6883     -4899.36   -5314.9336   -1389.5771 
   33900    299.46024   -6143.9926   -4939.2342    -5095.578   -522.77565 
   33950    304.66045   -6199.1636   -4973.4842   -5369.8264   -1325.2718 
   34000    296.18071   -6201.7135   -5010.1489   -5336.0751    -1089.818 
   34050     301.0757   -6231.2609   -5020.0033   -5319.2043   -1000.4552 
   34100    303.87813    -6221.913   -4999.3809   -5532.6033   -1782.9658 
   34150    295.67686   -6122.5826    -4933.045   -4904.6965    94.790445 
   34200    314.37676   -6085.3124   -4820.5433     -4734.46    287.84148 
   34250    323.83969   -6055.7453   -4752.9059   -4887.8374   -451.17837 
   34300    306.69004   -5986.2066   -4752.3619   -4617.2608    451.74524 
   34350    303.25162   -5991.8658   -4771.8542   -4578.4679    646.63668 
   34400    301.25457   -5984.0014   -4772.0242   -4528.1549    815.43959 
   34450    300.70931   -5959.0714   -4749.2878   -4216.2775    1782.2567 
   34500    313.45804   -5993.7996   -4732.7265   -4583.3819    499.37208 
   34550     320.8138   -6034.2984   -4743.6324   -4836.6162   -310.91513 
   34600    305.85514   -6047.8493   -4817.3635   -4633.3447     615.3142 
   34650    296.75396   -6093.9054   -4900.0345   -4888.6881    37.939642 
   34700    308.88568   -6177.9081   -4935.2301   -5126.2146   -638.60558 
   34750     295.8007   -6168.4778    -4978.442   -5038.9209   -202.22648 
   34800    300.87486   -6212.1719   -5001.7223   -5232.5445   -771.81347 
   34850    311.90861   -6264.3536   -5009.5141   -4548.6193      1541.12 
   34900      293.754   -6191.1681   -5009.3663   -5375.3046   -1223.6085 
   34950    311.01942   -6215.1063   -4963.8441   -5187.3909   -747.48602 
   35000    311.61777   -6191.3641   -4937.6946   -5181.4048   -814.90737 
   35050    296.05456   -6169.7571      -4978.7   -5051.3324   -242.86489 
   35100    303.50279   -6222.6523   -5001.6302   -5549.4553   -1831.7938 
   35150    293.52119   -6128.8724   -4948.0073   -4977.3015   -97.952709 
   35200      316.461   -6133.3641   -4860.2098   -4683.5067    590.85239 
   35250    312.04655   -6078.6968   -4823.3023   -4798.2616    83.730176 
   35300     296.5303   -6023.3253   -4830.3542   -4983.4107   -511.78361 
   35350    309.15659   -6104.6415   -4860.8736   -4880.0618   -64.160576 
   35400    292.67315   -6081.9683   -4904.5149   -4704.5304    668.69947 
   35450    316.03305   -6170.8514   -4899.4188   -4949.6488   -167.95666 
   35500    301.22362   -6144.7012   -4932.8484   -5144.9699   -709.28253 
   35550    301.88551   -6195.4936   -4980.9781   -5097.6968   -390.27897 
   35600    300.09942   -6206.8112   -4999.4812   -5443.4888   -1484.6535 
   35650    309.04434   -6252.5024   -5009.1861   -4924.5579    282.97614 
   35700    301.47408   -6243.4555   -5030.5952   -5557.0013   -1760.1739 
   35750    308.13342   -6261.5025   -5021.8509   -4843.1297    597.60037 
   35800    302.18625    -6202.186   -4986.4605   -5002.8317   -54.741363 
   35850    310.16992    -6181.221   -4933.3764   -4841.1878    308.25629 
   35900    314.33078   -6160.2153   -4895.6312   -4567.8404    1096.0527 
   35950    298.82192   -6123.0312   -4920.8408   -4556.4954    1218.2823 
   36000    304.37641   -6146.8284   -4922.2916   -5194.6787   -910.79601 
   36050    314.33848   -6152.6147   -4887.9996   -4874.0474     46.65265 
   36100    298.60608   -6071.6568   -4870.3348   -4473.4104    1327.2185 
   36150    315.29092   -6163.3406   -4894.8937    -5120.385   -753.98814 
   36200    307.52975   -6169.7683   -4932.5453   -5609.5193   -2263.6362 
   36250    308.24141   -6173.8273   -4933.7413   -5222.1147   -964.25047 
   36300    309.49156   -6195.9454     -4950.83   -5530.0902   -1936.9054 
   36350    283.33186   -6111.6702   -4971.7978   -4525.2669    1493.0909 
   36400    304.95511   -6146.7142   -4919.8494   -4992.9158   -244.31652 
   36450    306.63402    -6043.519   -4809.8996   -4541.4571    897.60639 
   36500    324.42695   -6029.7618   -4724.5597    -4790.192   -219.45843 
   36550    316.26852    -5996.511   -4724.1311   -4431.0538    979.97943 
   36600    288.28619   -5901.9136   -4742.1095   -4147.5437    1988.0831 
   36650    313.28478    -6017.888    -4757.512   -4923.2152     -554.071 
   36700    293.73462   -5955.9554   -4774.2317   -4382.2649    1310.6414 
   36750    300.02521   -5926.2446   -4719.2131   -4207.1129    1712.3384 
   36800    306.29136     -5840.48   -4608.2392   -3870.4724    2466.9128 
   36850    315.86993   -5821.0161   -4550.2398   -3798.2261    2514.5507 
   36900    309.68564   -5839.0623    -4593.166   -3776.8559    2729.5425 
   36950     292.0735   -5843.5998   -4668.5589   -3722.5664    3163.1687 
   37000    301.53646   -5912.4318   -4699.3204   -4332.9612    1225.0161 
   37050    304.59143   -5896.3604   -4670.9586   -4107.3989    1884.4067 
   37100    317.87227   -5919.3927   -4640.5608   -4101.5768    1802.2312 
   37150    317.41446   -5922.9098   -4645.9197   -4035.5569    2040.9046 
   37200    302.00272   -5919.4289   -4704.4417   -3971.3152    2451.3966 
   37250    297.73898   -5965.9179   -4768.0842   -4528.6985    800.44765 
   37300     296.5365    -5942.785    -4749.789   -4163.4286    1960.6466 
   37350    296.66808   -5893.0639   -4699.5385   -4051.3815    2167.2794 
   37400    302.04044   -5841.2169    -4626.078   -3737.3372    2971.7329 
   37450    316.63201   -5837.8791   -4564.0369   -3728.9397    2792.3618 
   37500    308.95052   -5817.1417   -4574.2029   -3889.5384    2289.3516 
   37550    303.82134   -5860.5046    -4638.201   -4019.9717    2067.2083 
   37600    296.09171   -5890.0717   -4698.8652   -4254.0595     1487.322 
   37650     301.6023   -5933.9685   -4720.5923   -4577.5771    478.20799 
   37700    292.36773   -5858.9286    -4682.704   -4203.1405    1603.5438 
   37750    306.75157   -5838.5196   -4604.4273   -3896.3164    2367.7506 
   37800     317.8187   -5790.9072   -4512.2908   -3697.2844     2725.183 
   37850    313.97089    -5764.976   -4501.8397   -3579.8767    3082.8199 
   37900    305.99795   -5800.4594    -4569.399   -3848.2591    2411.3163 
   37950    302.15569    -5871.245   -4655.6425   -3873.3003    2615.9617 
   38000    302.38826   -5946.0564   -4729.5182   -4355.5284    1250.5307 
   38050    304.78464   -5992.2382   -4766.0591   -4567.1934    664.95869 
   38100     298.8851   -5981.6817   -4779.2371   -4466.6833    1045.1037 
   38150    314.90688    -6005.017   -4738.1151   -4734.7959    11.098661 
   38200    301.35062   -5887.8018   -4675.4381   -3396.3935     4276.814 
   38250    311.16792   -5968.4326   -4716.5729   -4528.8061    627.84656 
   38300    295.76972   -6028.3725   -4838.4613   -5139.7675   -1007.4945 
   38350    290.87767   -6099.7404   -4929.5104   -5151.1264   -741.02991 
   38400    297.23431   -6124.0889   -4928.2856   -4793.8131    449.64345 
   38450    299.57368   -6051.8117   -4846.5969   -4794.3739    174.62098 
   38500    318.38622   -6029.8398   -4748.9402   -4666.8941    274.34228 
   38550    312.11476   -5985.9502   -4730.2814   -4466.4334    882.24339 
   38600    306.69457   -6006.2293   -4772.3664   -4620.4271     508.0482 
   38650    305.48831   -6046.4959   -4817.4859   -5098.1636   -938.51792 
   38700    300.09354   -6065.9765   -4858.6701   -4706.6329    508.37542 
   38750    291.13763   -6070.6097    -4899.334    -4557.793      1142.03 
   38800    300.76441    -6110.591   -4900.5857   -4843.4489     191.0517 
   38850    314.66242   -6140.8473   -4874.9289   -5061.0877   -622.46953 
   38900    298.37304   -6044.9415   -4844.5569   -4452.4953    1310.9588 
   38950    312.15252   -6048.9255   -4793.1047   -4687.3442    353.63734 
   39000    315.16861   -6059.5158    -4791.561   -4550.1694     807.1547 
   39050    302.35638   -6071.4241   -4855.0142   -4549.3469    1022.0771 
   39100    306.04923     -6139.33   -4908.0634   -5121.3575   -713.20349 
   39150    297.02791   -6125.4598   -4930.4869   -5299.5358   -1234.0099 
   39200     290.5602   -6083.3989   -4914.4462   -5136.8437   -743.64321 
   39250     310.8508   -6058.8217   -4808.2378   -4615.8816    643.19236 
   39300     321.3866   -5996.3552   -4703.3848   -4556.1552    492.29968 
   39350       310.08   -5931.2903   -4683.8074   -4241.6806    1478.3644 
   39400    303.27286   -5915.2669   -4695.1699   -4277.7993    1395.5857 
   39450    312.39867   -5980.3811   -4723.5701   -4293.6508    1437.5454 
   39500     288.0801    -5911.438    -4752.463   -3927.8745    2757.2233 
   39550    302.33244    -5983.895   -4767.5813   -4558.7825    698.17253 
   39600    312.45007   -6007.4015   -4750.3836   -4613.9099     456.3347 
   39650    316.16272   -6045.0899   -4773.1357   -4703.6443    232.36224 
   39700    295.19202   -6020.8832   -4833.2962   -4489.5999    1149.2369 
   39750    292.94104   -6039.8603   -4861.3292   -4846.9778    47.987599 
   39800     300.3489    -6052.643   -4844.3094    -4721.235    411.53086 
   39850    308.75647   -6064.0601   -4821.9019   -4915.0129   -311.34041 
   39900    306.27552   -6043.4404   -4811.2633   -4703.9429    358.85345 
   39950    312.66445   -6062.3153    -4804.435   -4769.1602    117.95012 
   40000    295.54931   -6006.1422   -4817.1177   -4577.8458    800.06707 
   40050    303.27632   -5998.1833   -4778.0723   -4738.4186    132.59222 
   40100    296.67829   -5897.8247   -4704.2583   -3608.0927     3665.311 
   40150    299.21466   -5840.1335    -4636.363   -3773.6266    2884.7807 
   40200    326.75815   -5915.2688   -4600.6881   -3933.5118    2230.8752 
   40250     311.7588   -5870.7995   -4616.5627   -3950.0626    2228.6141 
   40300    303.91936   -5879.3927   -4656.6947   -4427.4898    766.40541 
   40350    300.40738   -5871.4286   -4662.8597   -4016.4527    2161.4277 
   40400    304.10438   -5870.8724     -4647.43   -3952.5034    2323.6656 
   40450    305.41823   -5900.9866   -4672.2585   -4071.2808    2009.5231 
   40500    299.21438    -5939.796   -4736.0266   -4391.4568    1152.1575 
   40550    311.55829   -6037.4094   -4783.9793   -4778.1996    19.326023 
   40600    309.07403   -6080.8239   -4837.3882   -4814.3835    76.922064 
   40650    307.81484   -6165.8812   -4927.5113   -5422.1643   -1653.9992 
   40700    299.43464   -6208.2204   -5003.5649   -5535.2778   -1777.9184 
   40750    297.88793   -6216.2736   -5017.8407   -5428.9653   -1374.7005 
   40800    309.14967   -6243.3284   -4999.5883   -5541.8863   -1813.3125 
   40850    307.69432   -6220.5147   -4982.6297   -5675.8707   -2318.0291 
   40900     315.9979    -6207.559   -4936.2679   -5259.1398   -1079.6052 
   40950    303.65548   -6119.8911   -4898.2547    -4766.216    441.50524 
   41000    315.36441   -6142.0197   -4873.2772    -5121.896   -831.32088 
   41050    318.79436   -6184.9323   -4902.3907   -5135.8671   -780.68832 
   41100     308.9012    -6241.819   -4999.0786   -5695.8673    -2329.892 
   41150    288.08855   -6253.2968   -5094.2878   -5083.6328    35.627463 
   41200    283.15516   -6226.6009   -5087.4394   -5623.5431   -1792.6004 
   41250    310.80459   -6222.7407   -4972.3428   -5476.6554   -1686.2987 
   41300    303.05375   -6106.4118   -4887.1963   -4756.6488     436.5191 
   41350    311.79415   -6145.3311   -4890.9521   -4918.3434   -91.589826 
   41400    307.68189    -6206.207    -4968.372   -5649.0503   -2276.0224 
   41450    303.07397   -6224.9427   -5005.6458    -5602.651   -1996.2402 
   41500    306.16798   -6229.1469   -4997.4025    -5454.892   -1529.7333 
   41550    304.17977   -6193.3621   -4969.6165   -5375.8122   -1358.2197 
   41600    312.27575   -6228.4662   -4972.1497   -5720.1946   -2501.2803 
   41650    302.69973   -6206.6629   -4988.8716   -5310.7865    -1076.405 
   41700    309.58125    -6254.019   -5008.5427   -5626.8191   -2067.3657 
   41750    294.43015   -6236.1334   -5051.6115     -5295.15   -814.33377 
   41800    298.56982   -6259.5082    -5058.332   -5253.2462   -651.74569 
   41850    299.24358   -6230.0472   -5026.1604   -5264.6719    -797.5243 
   41900    319.92995   -6254.3531    -4967.243   -5324.5332   -1194.6916 
   41950    305.19291   -6196.6475   -4968.8259    -4982.842   -46.866434 
   42000    301.70547   -6215.9925   -5002.2013   -5136.8135   -450.11057 
   42050    306.91097   -6239.4456    -5004.712   -5908.3216   -3021.4506 
   42100    304.38616   -6178.4138   -4953.8379    -5013.697   -200.15422 
   42150    316.86727   -6156.1663   -4881.3776   -5088.3994   -692.23052 
   42200    310.51857   -6089.4433   -4840.1961   -4988.7566   -496.75024 
   42250    298.27417   -6002.4059   -4802.4191   -4592.1014     703.2511 
   42300    320.04268    -6007.519   -4719.9553     -4262.24    1530.4886 
   42350    306.63345   -5942.5695   -4708.9525   -4021.7543    2297.8235 
   42400     308.1885   -6021.0069   -4781.1337   -4153.3702    2099.0885 
   42450    299.87056   -6089.4402    -4883.031   -4902.3257   -64.516972 
   42500    291.24845   -6105.7174   -4933.9958    -5108.721    -584.2385 
   42550     297.8183   -6102.1079   -4903.9551   -4841.8268    207.74185 
   42600    308.08441   -6055.0526   -4815.5983   -4898.8429   -278.34993 
   42650    305.81859   -5975.1246   -4744.7858    -4147.838    1996.0483 
   42700    310.06913   -5981.5164   -4734.0773   -4029.2482    2356.7771 
   42750    297.33612     -5927.67   -4731.4571   -4299.8569    1443.1659 
   42800    315.31187   -5974.4948   -4705.9636   -4216.6505     1636.144 
   42850    307.52366   -5923.9637   -4686.7652   -3855.6931    2778.9031 
   42900    312.52717   -5949.8561    -4692.528   -4109.2317    1950.4008 
   42950    296.65613   -5868.7964   -4675.3191   -3837.8811     2800.189 
   43000    303.46221   -5865.0004   -4644.1416   -4253.2646    1306.9978 
   43050    309.73822   -5840.9845   -4594.8767   -3797.6985      2665.57 
   43100     309.1652    -5861.793   -4617.9905   -4058.5532    1870.6222 
   43150    309.85195   -5951.6155   -4705.0501   -4163.6574    1810.2852 
   43200    306.49852   -6022.8429   -4789.7687   -4827.7057   -126.85221 
   43250    303.49964   -6083.0452   -4862.0358   -4760.4412    339.70765 
   43300     310.2537    -6152.984   -4904.8023   -5138.4027   -781.10285 
   43350    303.29317   -6156.1879   -4936.0092   -5126.0645   -635.49889 
   43400    302.96138   -6188.4831   -4969.6392   -5309.2161   -1135.4626 
   43450     297.6571   -6180.2215   -4982.7173    -5313.692    -1106.699 
   43500    311.53293   -6199.9366   -4946.6084   -5255.4301   -1032.6247 
   43550    313.05072   -6158.4752   -4899.0409   -4701.5199    660.46211 
   43600    303.51221   -6099.3711   -4878.3111   -4958.1305   -266.89661 
   43650    302.79273   -6075.7029   -4857.5375   -4592.5269    886.13093 
   43700    302.89695   -6036.9262   -4818.3415   -4486.2597    1110.4008 
   43750    318.82636   -6055.6308   -4772.9605   -4646.8348    421.73376 
   43800    307.69653   -6020.2845   -4782.3906   -4615.6734    557.46182 
   43850      305.173   -6023.1811   -4795.4396   -4588.6027    691.61221 
   43900     301.7858   -6004.4678   -4790.3533   -4498.9442    974.40107 
   43950    307.10967   -5996.8323   -4761.2994   -4362.7584    1332.6242 
   44000    320.33259   -6017.8255   -4729.0955   -4628.1752     337.4528 
   44050    302.73051   -5930.0769   -4712.1617   -4128.4959    1951.6364 
   44100    303.21932    -5913.835   -4693.9534   -4161.4717    1780.4892 
   44150    308.66314   -5918.5637   -4676.7811   -4058.4166    2067.6604 
   44200     305.2737   -5917.0222   -4688.8755   -4090.6119    2000.4481 
   44250    305.63039   -5934.7558   -4705.1742   -4410.4949    985.33573 
   44300    310.69579   -5977.9726   -4728.0124   -4612.5084    386.21721 
   44350    303.88257   -5979.1344   -4756.5845   -4720.7358    119.86953 
   44400    301.51755   -5986.4768   -4773.4416   -4404.2479    1234.4938 
   44450    295.54221   -5969.9627   -4780.9669   -4600.3628     603.8959 
   44500    309.75222   -6042.1909   -4796.0268   -4718.5464    259.07548 
   44550    314.72281   -6127.8116   -4861.6503   -5165.3663   -1015.5525 
   44600    291.60239   -6124.5907   -4951.4452   -5071.8397   -402.57015 
   44650    305.96448   -6194.2616   -4963.3359   -5213.6696   -837.05502 
   44700     311.8829    -6155.688   -4900.9519   -5258.0059   -1193.9016 
   44750    311.36693    -6088.392   -4835.7317   -4684.7778    504.75327 
   44800    313.04942   -6069.4755   -4810.0463   -5036.4223   -756.94607 
   44850    320.10662   -6077.7442   -4789.9233   -4878.9731   -297.76106 
   44900    309.68581    -6074.432   -4828.5351   -4949.9915   -406.12061 
   44950    304.21151   -6077.5216   -4853.6482   -4986.3879   -443.84914 
   45000    310.36703   -6111.9737   -4863.3362   -4736.5056    424.09053 
   45050    298.83184   -6084.2984   -4882.0681   -4928.9531   -156.77205 
   45100    304.40736    -6091.632   -4866.9708   -4871.7154   -15.864536 
   45150    312.38954    -6101.592   -4844.8176   -5087.4491   -811.30047 
   45200    311.24567   -6093.3355    -4841.163   -5227.0866   -1290.4346 
   45250    311.51896   -6062.3641   -4809.0922   -4555.0581    849.42815 
   45300     306.2024   -6009.4128   -4777.5299   -4420.6337    1193.3741 
   45350    306.02836   -6009.3662   -4778.1835   -4483.0077     986.9961 
   45400    302.11475   -5978.6582   -4763.2203   -4346.5768    1393.1547 
   45450    304.45466   -5964.1211   -4739.2696   -4185.6563    1851.1482 
   45500     304.1354   -5976.2472     -4752.68   -4026.0019    2429.8347 
   45550     301.8264   -6042.3616   -4828.0839   -4616.9543    705.96585 
   45600    308.41114   -6158.5197   -4917.7508   -5226.7043   -1033.0654 
   45650    292.39044   -6192.4944   -5016.1784   -5169.9484   -514.16928 
   45700    295.34493   -6250.6776   -5062.4754   -5694.6423   -2113.8124 
   45750    297.01857   -6250.3894    -5055.454   -5444.4611   -1300.7451 
   45800    309.91701   -6246.5017   -4999.6746   -5292.5126   -979.17897 
   45850    317.76332   -6216.6862   -4938.2926   -5755.7077   -2733.2372 
   45900     306.9233   -6123.7378   -4888.9547    -4902.963   -46.840401 
   45950    305.14668   -6087.5852   -4859.9496   -4514.6627    1154.5553 
   46000    320.51373   -6146.7028    -4857.244   -5206.5778   -1168.0872 
   46050    309.49236   -6136.2376   -4891.1189   -5165.0107   -915.82748 
   46100    313.23633   -6214.0768   -4953.8957   -5413.6501   -1537.3067 
   46150    294.87077   -6238.4581   -5052.1635   -5638.2209   -1959.6332 
   46200    288.90512   -6268.8866   -5106.5924   -5461.8929   -1188.0386 
   46250    295.85242   -6261.1992   -5070.9553   -5419.7023    -1166.125 
   46300    316.12665   -6261.9308   -4990.1217   -5330.2951    -1137.457 
   46350    311.52114   -6215.3626   -4962.0819   -5304.7957   -1145.9516 
   46400    310.32245   -6246.3628   -4997.9046   -5301.1089   -1013.8412 
   46450    301.55907   -6268.0681   -5054.8658   -5307.3783   -844.34051 
   46500     294.8996   -6272.0904   -5085.6798   -5657.9917   -1913.6718 
   46550    301.05913   -6258.1448   -5046.9538   -5069.9397   -76.859385 
   46600    307.13236   -6232.6911   -4997.0669   -5237.5425   -804.09187 
   46650    316.43895   -6231.7285    -4958.663   -5244.8504   -956.94086 
   46700    316.32602   -6212.7865   -4940.1753   -5187.0607   -825.52443 
   46750    318.94359     -6248.04   -4964.8981   -5214.7753   -835.52851 
   46800      302.044   -6260.0787   -5044.9255   -5354.1369   -1033.9275 
   46850    301.33781   -6292.2137   -5079.9015   -5268.3533    -630.1368 
   46900    295.26561   -6251.9584   -5064.0753    -5380.735   -1058.8328 
   46950    305.12647   -6229.8892   -5002.3349   -5311.1213   -1032.5066 
   47000    318.08415   -6224.6795   -4944.9951   -5312.4031    -1228.523 
   47050    302.28362   -6160.0473   -4943.9301   -5196.2036   -843.54134 
   47100    312.80286   -6210.9215   -4952.4843   -5225.6005   -913.23428 
   47150    304.93147   -6221.0127   -4994.2429    -5178.434   -615.89015 
   47200    289.61082   -6222.4711   -5057.3378   -5181.9397   -416.63836 
   47250    299.20562   -6277.9559   -5074.2218   -5802.7568   -2436.0439 
   47300    293.96654   -6209.9282   -5027.2714   -5160.3465   -444.97072 
   47350    308.66275   -6213.0377   -4971.2566   -4897.3223    247.21811 
   47400    299.71494   -6167.5494   -4961.7663   -4917.8211    146.94205 
   47450    299.65792   -6136.4503   -4930.8965   -4951.8112   -69.933431 
   47500     308.4218   -6121.2913   -4880.4796   -4882.1719    -5.658664 
   47550    317.05396   -6115.2504   -4839.7107   -4786.9964    176.26352 
   47600    302.41531   -6047.8624   -4831.2154   -4902.4301   -238.12478 
   47650    307.20356   -6036.6542   -4800.7436   -4483.2178    1061.7287 
   47700    297.40496   -5965.2364   -4768.7465   -4084.2796    2288.6908 
   47750    317.36021   -6020.7405   -4743.9687    -4753.439   -31.666539 
   47800    311.58156   -5968.6699   -4715.1461    -4309.769    1355.4823 
   47850    301.85778   -5907.7638   -4693.3597   -4143.6758    1838.0092 
   47900    300.87159   -5872.7264     -4662.29   -3739.1159    3086.8694 
   47950    304.46325   -5835.8342   -4610.9481   -3868.5212    2482.4948 
   48000    312.47251   -5868.6969   -4611.5887   -3779.8029    2781.2894 
   48050     305.6505   -5903.8365    -4674.174   -4206.9794    1562.1851 
   48100    296.63007   -5934.8973   -4741.5249   -4367.3966    1250.9938 
   48150    302.44855   -5976.2237    -4759.443   -4566.6805    644.55068 
   48200    306.12468   -5923.9104   -4692.3403   -4135.3404    1862.4719 
   48250    308.48233   -5821.6275   -4580.5722   -3474.9957    3696.7788 
   48300    327.78298   -5862.0107    -4543.307   -3725.2468    2735.3943 
   48350    307.97023   -5844.1686   -4605.1735   -4166.9703    1465.2451 
   48400     296.8484   -5883.5696   -4689.3189   -4263.6318     1423.394 
   48450    299.31596   -5944.0792   -4739.9011   -4330.9728     1367.357 
   48500    298.43597   -5959.1678     -4758.53   -4286.6428    1577.8761 
   48550    296.87124    -5946.974   -4752.6313   -4292.1447    1539.7554 
   48600    307.84619   -5972.2377   -4733.7417   -4430.8775    1012.7041 
   48650    298.57502   -5904.4931    -4703.296   -3949.5475    2520.3515 
   48700    311.13146   -5926.9741   -4675.2612   -3874.6232    2677.1385 
   48750    295.49251   -5872.9882   -4684.1923   -4214.0461    1572.0544 
   48800    297.25379   -5874.5683   -4678.6866   -4057.8908    2075.7902 
   48850    318.44664   -5895.5839   -4614.4412   -4204.7381    1369.9474 
   48900     315.8387   -5853.2307     -4582.58   -3659.8015    3085.5468 
   48950    305.34618     -5839.57   -4611.1318   -4014.7115    1994.2842 
   49000    298.70589   -5887.9087    -4686.185    -4069.761     2061.172 
   49050    301.66368   -5955.1768   -4741.5537   -4136.5315    2023.0469 
   49100    305.10518   -6005.4821   -4778.0134    -4588.263    634.47928 
   49150    297.99052   -6050.3863   -4851.5407   -4883.4443   -106.67811 
   49200    301.03712   -6108.5585   -4897.4561   -4819.3408    261.19854 
   49250    306.50681   -6159.3117   -4926.2042   -5291.2195   -1220.5224 
   49300    296.66693    -6139.227   -4945.7063   -4857.4793    295.00957 
   49350    295.97134   -6155.9982   -4965.2759   -5012.2522   -157.07717 
   49400    312.38911   -6218.9341   -4962.1615   -5049.2012   -291.03962 
   49450    306.76017   -6213.7621   -4979.6353   -5012.7717   -110.80002 
   49500    285.98967   -6122.5223   -4971.9573   -4917.8566    180.89944 
   49550     303.3646   -6107.2098   -4886.7437   -5098.6692   -708.62736 
   49600    319.56618   -6079.4157    -4793.769   -4808.7583   -50.120707 
   49650    309.05072   -5984.8313   -4741.4893   -4691.3667    167.59778 
   49700    300.06317   -5903.4312   -4696.2471   -4287.3071    1367.3958 
   49750    309.48752   -5908.5446   -4663.4454   -3987.4977    2260.2046 
   49800    303.75519    -5888.003   -4665.9655   -3852.6023    2719.6888 
   49850    305.85296    -5895.308   -4664.8309   -4317.1678    1162.5007 
   49900    309.85788   -5890.4525   -4643.8633   -4012.3037    2111.7818 
   49950    303.58682   -5838.8329   -4617.4728   -3789.9933      2766.89 
  STMD DIG: istep= 50000  TSC1= 50000 T= 1.140507
   50000    309.11784   -5849.0041   -4605.3921   -3784.6912    2744.2243 
   50050     297.8195   -5804.8699   -4606.7123   -3672.9661    3122.2201 
   50100    312.82227   -5879.2585   -4620.7432   -4154.7206    1558.2663 
   50150    303.22745   -5860.5313   -4640.6169   -4007.9574    2115.4596 
   50200    301.00459   -5917.4945   -4706.5229   -4250.9587    1523.2961 
   50250    297.39476   -5970.1083   -4773.6594    -4384.053    1302.7489 
   50300    294.41476    -5973.783    -4789.323   -4413.3248    1257.2466 
   50350    307.85128   -6007.0119   -4768.4955   -4649.6797    397.29107 
   50400    301.26797   -5947.0123   -4734.9812   -4336.4299    1332.6584 
   50450    308.83381   -5925.0194   -4682.5501   -4372.6062    1036.3768 
   50500    310.19259   -5906.0282   -4658.0925   -4002.8996    2190.8054 
   50550    320.65619   -5989.0765   -4699.0446   -4527.5477    573.44395 
   50600    307.60605   -6046.7206   -4809.1907   -4647.4442    540.84104 
   50650    295.80763   -6110.0066   -4919.9429   -4836.7999    278.01005 
   50700     302.6014   -6170.6107    -4953.215   -5292.4279   -1134.2453 
[...]
  988400    309.62658   -6386.8794   -5141.2207    -6158.374   -3401.1132 
  988450    294.80349   -6338.4688   -5152.4449   -5780.4879   -2100.0231 
  988500    309.97916   -6391.1843   -5144.1071   -6293.5521   -3843.4642 
  988550    313.80193   -6373.3184   -5110.8619   -5967.1251   -2863.1357 
  988600    316.26253   -6377.1014   -5104.7456   -5990.0242   -2960.1561 
  988650    295.19398   -6339.5616   -5151.9668   -5740.5706   -1968.1479 
  988700    298.20813   -6376.0621    -5176.341   -5896.0462    -2406.519 
  988750    292.30438   -6354.1465   -5178.1768   -5897.9011   -2406.5828 
  988800    304.01549   -6374.7511   -5151.6663   -6064.8798   -3053.5635 
  988850     314.7641   -6410.5112   -5144.1838   -6202.5588   -3538.9487 
  988900    302.10834   -6400.8611    -5185.449   -5997.0525   -2713.8045 
  988950     301.2081   -6434.6925   -5222.9021   -6405.0213   -3952.7187 
  989000    305.23439   -6453.3808   -5225.3923    -6437.665   -4053.5449 
  989050    309.50282   -6445.7566   -5200.5958   -6228.7852   -3438.0152 
  989100    312.53237   -6436.3477   -5178.9988   -6219.1888   -3478.1423 
  989150    311.76765   -6421.9855   -5167.7131    -6093.684   -3096.2214 
  989200    307.68162   -6433.0314   -5195.1975   -6019.7084    -2756.964 
  989250     294.0245   -6441.0906   -5258.2006   -6341.8865    -3623.582 
  989300    288.91822   -6433.4924   -5271.1455   -6245.3334   -3257.4474 
  989350    300.27446   -6421.8784   -5213.8443   -5979.7684   -2561.0638 
  989400    306.24384   -6372.6871   -5140.6375   -5954.8823   -2722.6365 
  989450    300.42156   -6316.3944   -5107.7684   -5618.9401   -1709.2339 
  989500    302.50092   -6299.5015     -5082.51   -5390.1083   -1028.5339 
  989550    315.50081   -6356.0213     -5086.73   -5640.8209   -1852.7449 
  989600    300.27822   -6373.2541   -5165.2049   -6020.4681   -2859.7922 
  989650    300.53528   -6422.3376   -5213.2541    -6132.752   -3074.5772 
  989700    299.50401   -6433.6886    -5228.754   -6353.2315   -3759.9791 
  989750    309.27625   -6451.2466   -5206.9974   -6442.0231   -4129.6253 
  989800     307.7148   -6414.0324    -5176.065   -5977.7059   -2680.4919 
  989850       313.61   -6401.8904    -5140.206   -5719.5727   -1937.2612 
  989900    310.31367   -6384.1945   -5135.7716   -5963.8871   -2769.0169 
  989950    289.52064   -6301.0085    -5136.238   -5885.9088   -2506.7165 
  990000    304.64323   -6295.7295   -5070.1193   -5489.3575   -1401.8305 
  990050    316.39397   -6271.0465    -4998.162   -5309.4415    -1040.843 
  990100    310.96768    -6243.987   -4992.9329   -5576.0951   -1949.9524 
  990150    304.57265   -6242.3688   -5017.0426   -5429.0052   -1377.5027 
  990200    309.39071   -6269.5207   -5024.8109   -5523.5856   -1667.7812 
  990250     310.7988    -6283.284   -5032.9093   -5548.7437   -1724.8246 
  990300    300.98552   -6264.7937   -5053.8989     -5237.04   -612.37944 
  990350    303.60139   -6280.2544   -5058.8356   -5533.3351    -1586.611 
  990400    297.73507   -6262.2168   -5064.3988   -5500.9218   -1459.6267 
  990450    304.97542     -6271.73   -5044.7834   -5379.6227   -1119.6209 
  990500    300.92973   -6246.3915   -5035.7211   -5372.4127   -1125.8147 
  990550    310.33002    -6319.198   -5070.7093   -5678.7145   -2033.0213 
  990600    296.51315   -6319.2686   -5126.3665   -5756.0848   -2105.6245 
  990650    291.34585   -6348.4302   -5176.3167   -5741.9973   -1891.4984 
  990700    296.55601    -6385.172   -5192.0975   -6053.0137    -2878.694 
  990750    309.09649   -6402.6217   -5159.0957    -5985.373   -2762.8705 
  990800    303.06726   -6322.1444   -5102.8745   -5637.3369   -1787.1121 
  990850    318.99916   -6309.0733   -5025.7077   -5770.2487   -2489.5637 
  990900    302.69335   -6233.0157   -5015.2501   -5268.6923     -847.449 
  990950    309.96991   -6305.0606   -5058.0207   -5838.3217   -2609.1369 
  991000    310.04402   -6342.8026   -5095.4645   -5790.4346   -2323.8108 
  991050    297.01314   -6319.0724   -5124.1589   -5791.2304   -2230.5249 
  991100    302.89944   -6328.5814   -5109.9867   -5847.4369    -2465.854 
  991150    311.72001   -6336.1423   -5082.0615   -5704.9353   -2082.7384 
  991200    293.68491   -6249.1819   -5067.6581   -5220.3173   -510.45506 
  991250    303.73426    -6247.124   -5025.1707   -5519.2064   -1651.9352 
  991300     302.6494   -6197.3233   -4979.7345    -5345.613   -1223.4086 
  991350    310.55327   -6188.5496   -4939.1628   -4852.3246    290.36583 
  991400    311.49015   -6215.6235   -4962.4675    -4968.125   -18.917262 
  991450    297.12132   -6213.4082   -5018.0594    -5013.284    15.967893 
  991500    298.20461    -6243.201   -5043.4941    -5659.154    -2058.617 
  991550    307.16358   -6273.2213   -5037.4715   -5590.9294   -1850.6286 
  991600    296.13065   -6225.1964   -5033.8332    -4971.867    207.20004 
  991650    302.75114   -6222.5284   -5004.5303   -5085.5787   -271.00624 
  991700    315.82776   -6255.5013   -4984.8946   -5238.3074   -847.35072 
  991750    316.66363    -6284.145   -5010.1755   -5465.8162   -1523.5516 
  991800    302.18317   -6258.8897   -5043.1766   -5196.3189   -512.07029 
  991850    297.56945   -6239.9524   -5042.8008   -5447.8607   -1354.4218 
  991900    300.71385   -6235.8749   -5026.0731   -5597.8013   -1911.7201 
  991950    302.16808   -6190.3422   -4974.6898   -5007.0964   -108.35967 
  992000    316.38447   -6185.0757   -4912.2294    -4905.877    21.240789 
  992050    307.25829   -6141.1783   -4905.0475   -4953.1515   -160.84835 
  992100    314.71342   -6226.2445   -4960.1209   -5263.3458   -1013.9103 
  992150    285.51712   -6172.8425   -5024.1786   -5184.0584    -534.5991 
  992200    298.79121   -6216.5155   -5014.4486    -5248.818   -783.67408 
  992250    298.96763   -6163.6794   -4960.9027   -4962.3691   -4.9035086 
  992300    298.85341    -6082.705   -4880.3879   -4792.1395    295.08121 
  992350    305.19295   -6037.7785   -4809.9568   -4766.4086    145.61443 
  992400    308.54266   -6026.3683   -4785.0703   -4659.5122    419.83597 
  992450    297.22976   -5981.5449   -4785.7598   -4535.2715    837.57206 
  992500    311.79862   -6039.2105   -4784.8135   -4704.1037    269.87389 
  992550    303.06243   -5999.4722   -4780.2217   -4531.7122     830.9554 
  992600    302.55631   -6007.9356   -4790.7213   -4611.4937    599.29373 
  992650    307.32865   -6025.6669    -4789.253   -4835.1892    -153.5996 
  992700    296.96373   -5980.6407    -4785.926   -4420.9482    1220.3968 
  992750    310.73178   -6038.1841   -4788.0792   -5076.0985   -963.06654 
  992800    315.53908   -6099.8147   -4830.3694   -5124.5358   -983.62081 
  992850    303.35686   -6117.1994   -4896.7644   -5086.7109   -635.13476 
  992900    301.14339   -6155.3469    -4943.817   -5332.1494    -1298.489 
  992950    305.20459   -6187.4125   -4959.5439   -4879.0855    269.03331 
  993000    306.29283   -6186.0105   -4953.7638   -5221.6093   -895.60996 
  993050    304.62428   -6172.8229    -4947.289   -5152.2717   -685.41255 
  993100    308.83636   -6150.1503   -4907.6707   -4864.7271    143.59312 
  993150    308.16906    -6100.601   -4860.8061   -4726.0419    450.61861 
  993200     320.8032   -6130.9096   -4840.2863   -4945.6472   -352.30141 
  993250    312.88931   -6124.5107   -4865.7257   -4784.8658    270.37588 
  993300    301.52593   -6127.7384   -4914.6694   -4986.6537   -240.69794 
  993350    304.77144   -6170.0778   -4943.9518    -4998.703   -183.07455 
  993400    288.39067   -6088.1853   -4927.9608   -4857.3347    236.15649 
  993450    296.57354   -6036.0873   -4842.9423   -4911.6501   -229.74229 
  993500    305.07774    -5969.576   -4742.2177   -4394.3332    1163.2412 
  993550     312.3306   -5910.4204   -4653.8832   -4043.5887    2040.6762 
  993600    312.07701   -5858.4924   -4602.9754   -3848.3689    2523.2206 
  993650    315.24527   -5884.6507   -4616.3874   -4084.5476    1778.3428 
  993700    300.61859   -5869.9709   -4660.5522   -4171.4883    1635.3106 
  993750    294.13393   -5831.3317   -4648.0015   -3855.9829    2648.3176 
  993800    299.93202   -5799.1287   -4592.4722   -3849.3164    2484.9323 
  993850    309.85351   -5787.3427    -4540.771   -3530.9324    3376.6547 
  993900    303.74993   -5784.4648   -4562.4485   -3837.1486    2425.2264 
  993950    305.47098   -5883.1982   -4654.2579   -4119.6613    1787.5608 
  994000    295.17565   -5915.7122    -4728.191    -4492.961    786.55197 
  994050    301.52172   -5952.0075   -4738.9555   -4297.5465    1475.9642 
  994100    299.74163   -5907.4425    -4701.552   -3938.2462    2552.3087 
  994150    310.89138   -5914.8034   -4664.0563   -4020.0047    2153.5518 
  994200    303.10223   -5895.2492   -4675.8386   -3806.3077    2907.4997 
  994250    302.80764   -5925.3721   -4707.1467   -3898.0239    2705.5099 
  994300     310.5264   -5973.5704   -4724.2916   -4504.4456    735.11172 
  994350    307.32313   -5992.5443   -4756.1526   -4348.4246    1363.3433 
  994400    303.21136   -5997.0616    -4777.212   -4432.1369    1153.8472 
  994450    306.80982   -5998.5809   -4764.2543   -4601.9095    542.84145 
  994500    296.96382   -5927.7661   -4733.0509    -4147.335    1958.4916 
  994550    304.27578   -5877.7252   -4653.5933   -4377.2088     924.1626 
  994600    309.18269   -5816.6838   -4572.8109   -3776.6289    2662.2388 
  994650    310.03021   -5823.7881   -4576.5056   -3746.7777    2774.4082 
  994700    307.77292   -5878.9452    -4640.744    -3986.249     2188.472 
  994750    297.26017   -5906.8226   -4710.9153    -4134.553    1927.2152 
  994800    301.56797   -5951.5776   -4738.3395   -4443.1135      987.164 
  994850    299.61599   -5926.4683   -4721.0832   -4426.7751    984.09486 
  994900    306.33405   -5919.0764   -4686.6639    -4226.075    1540.0972 
  994950     309.9248   -5894.8933   -4648.0348   -3785.7211    2883.3673 
  995000    308.00246   -5881.1186   -4641.9939   -3658.5023    3288.5567 
  995050    301.69144   -5895.3797   -4681.6449   -3954.3292    2431.9668 
  995100    310.03681   -5987.2798   -4739.9707   -4605.3772    450.04807 
  995150     309.0725   -6026.4147   -4782.9851   -4718.3157    216.23866 
  995200    309.44165   -6069.3129   -4824.3982   -4738.4478    287.39746 
  995250    292.19961   -6036.4921   -4860.9438   -5025.8093   -551.26987 
  995300     308.3416   -6093.1162   -4852.6271   -4722.6859    434.49185 
  995350    317.87165    -6119.341   -4840.5116   -4699.7383    470.71182 
  995400    310.23169   -6140.7576   -4892.6645   -5166.1176   -914.36059 
  995450    297.08878   -6115.9909    -4920.773   -4905.4635    51.191211 
  995500    309.48412   -6158.3171   -4913.2316    -4986.623   -245.40286 
  995550    300.52264   -6119.4094   -4910.3767   -4844.4498    220.44349 
  995600    298.39065   -6098.9218   -4898.4664    -4888.478    33.398723 
  995650     308.5633   -6142.4649   -4901.0839   -4986.9414   -287.08673 
  995700    295.60575   -6086.4048   -4897.1533    -4726.618    570.22859 
  995750    311.05223   -6110.5566   -4859.1623   -4807.1662    173.86244 
  995800    302.07991   -6032.2643   -4816.9667    -4651.034    554.83838 
  995850    309.22677    -6024.202   -4780.1518   -4745.6044    115.51818 
  995900    312.26716   -6028.7646   -4772.4825   -4705.1582    225.11632 
  995950     303.3516   -6020.1337   -4799.7199   -4674.0673    420.15167 
  996000     307.0203   -6025.6673   -4790.4939    -5043.094   -844.63338 
  996050    323.41072   -6064.4016   -4763.2879    -4890.073   -423.93851 
  996100    310.45805   -6036.7569   -4787.7531   -4874.0176   -288.44756 
  996150    299.94765   -6024.6957   -4817.9763   -4829.9967   -40.193119 
  996200     314.6107   -6093.7452   -4828.0349   -4839.8286   -39.435184 
  996250    310.63044   -6107.9622   -4858.2649    -4912.807   -182.37538 
  996300    304.25625   -6120.2003    -4896.147    -4956.882   -203.08312 
  996350      306.939   -6153.6616   -4918.8154   -5394.4586   -1590.4354 
  996400     313.3409   -6206.9334   -4946.3316   -5267.5988   -1074.2391 
  996450    302.59606    -6203.421   -4986.0468   -5279.0906   -979.86725 
  996500    308.47645   -6253.4981   -5012.4665   -5621.9305   -2037.8991 
  996550    313.67799   -6276.0725   -5014.1146   -5642.9703   -2102.7405 
  996600    310.01458   -6273.2973   -5026.0776   -5769.1784   -2484.7483 
  996650    305.93238   -6258.4489   -5027.6523   -5317.4237   -968.92502 
  996700    310.73285   -6262.6918   -5012.5825   -5347.6254   -1120.3018 
  996750    305.77677   -6247.4263   -5017.2557   -5772.0748   -2523.9314 
  996800    310.06783    -6231.592   -4984.1581   -5320.7948   -1125.6312 
  996850    313.02944   -6195.5819   -4936.2332   -5177.0691   -805.29665 
  996900    300.36046   -6136.8027   -4928.4225   -5363.8279   -1455.8897 
  996950    315.00398   -6200.8994   -4933.6069   -5179.0988   -820.86514 
  997000    307.49254   -6184.0042    -4946.931   -5073.9145   -424.60188 
  997050    304.33022   -6178.6548   -4954.3039   -5085.9128   -440.06801 
  997100    312.96032   -6207.7454   -4948.6748   -5058.6521   -367.73743 
  997150     305.1316     -6196.74    -4969.165   -5221.4892   -843.71065 
  997200    301.12393   -6203.3637    -4991.912   -5305.0018    -1046.896 
  997250    301.68378   -6214.5095   -5000.8055   -5481.1559   -1606.1749 
  997300    294.58321    -6166.647   -4981.5093    -5110.613   -431.69149 
  997350    309.44269   -6188.0405   -4943.1216   -5032.2956   -298.17634 
  997400    298.23394    -6118.366   -4918.5411   -4701.5743    725.48407 
  997450     305.0055   -6123.9608   -4896.8932   -4879.7412    57.352209 
  997500     302.2129   -6095.3984   -4879.5657    -4786.838    310.05885 
  997550    307.13733   -6110.8879   -4875.2437   -4872.4822    9.2336758 
  997600    314.73799   -6159.5462   -4893.3238   -5037.2766   -481.34302 
  997650    306.50521   -6184.9138   -4951.8127   -5099.6796   -494.43078 
  997700    308.75023   -6298.1973   -5056.0643    -5869.873   -2721.1783 
  997750    299.06376   -6352.5134     -5149.35   -6200.3369   -3514.2445 
  997800    291.64279   -6343.1157   -5169.8076   -5984.8891   -2725.4343 
  997850    300.88542   -6317.9216   -5107.4295   -5950.8656    -2820.245 
  997900     302.4653   -6230.7327   -5013.8846    -5263.866   -835.87677 
  997950     313.4626   -6218.9868   -4957.8954   -5186.2976   -763.72135 
  998000    304.86125   -6216.4147   -4989.9274   -5223.7062   -781.69925 
  998050    308.35971   -6292.1494   -5051.5874   -5633.2862   -1945.0592 
  998100    305.49522   -6334.3071   -5105.2693   -5913.2342   -2701.6379 
  998150    307.48086   -6377.5279   -5140.5017   -6130.1553   -3309.1607 
  998200    307.52359   -6393.7316   -5156.5335   -6094.1897   -3135.2942 
  998250    301.13254   -6362.8062   -5151.3199   -5974.4813   -2752.4516 
  998300    313.31835   -6375.5994   -5115.0883   -6092.6922   -3268.8695 
  998350    295.87109   -6278.6346   -5088.3156   -5650.8235   -1880.8895 
  998400    294.06763   -6232.2844   -5049.2209   -5512.3799   -1548.6911 
  998450     308.4254   -6228.9623   -4988.1361   -5432.9519   -1487.3558 
  998500    306.19481   -6178.7247   -4946.8724   -5158.3225   -707.03774 
  998550    308.32596   -6181.0053   -4940.5791   -5078.5223   -461.24849 
  998600    296.42554   -6163.3865    -4970.837   -5581.4894   -2041.8732 
  998650    304.41044   -6180.2796    -4955.606   -5197.0332    -807.2741 
  998700    307.57195   -6156.3369   -4918.9442   -5045.2849   -422.45265 
  998750    310.87189    -6148.026   -4897.3573   -5170.8925   -914.63522 
  998800     306.5964   -6124.0415   -4890.5735   -4911.2758   -69.223267 
  998850    302.24082   -6082.9485   -4867.0034   -4401.2947    1557.2167 
  998900    310.37661   -6059.5318   -4810.8557   -4116.6647    2321.2059 
  998950    313.01646   -6030.3471   -4771.0506   -4805.6499   -115.69172 
  999000    306.61756   -5990.5984   -4757.0453   -4374.2392    1280.0103 
  999050    319.78995   -6032.7945   -4746.2475   -4617.1749    431.58766 
  999100    304.45008   -6013.3411    -4788.508   -4534.2148    850.29468 
  999150    303.03781   -6079.5606   -4860.4092   -4697.7967    543.73659 
  999200    304.10095   -6127.5794   -4904.1509   -5087.5354   -613.19321 
  999250    306.79297   -6171.1654   -4936.9066   -5262.7091   -1089.4041 
  999300    296.27711    -6119.186   -4927.2335   -4913.1135    47.214019 
  999350    302.29741   -6109.8266    -4893.654   -4872.3515    71.230133 
  999400    303.79566   -6086.7497   -4864.5494   -4559.6365    1019.5544 
  999450    305.55524   -6050.0561   -4820.7768   -4724.3184    322.53341 
  999500     311.7925   -6039.9605   -4785.5881   -4662.0226    413.17312 
  999550    301.76789   -5987.2728   -4773.2304   -4268.3932    1688.0528 
  999600    299.34951   -5948.2339   -4743.9209   -3915.5911    2769.7334 
  999650    309.24955   -5937.5424   -4693.4005   -4327.8312    1222.3748 
  999700    314.35885   -5939.8731   -4675.1761   -4311.2907    1216.7441 
  999750    302.55362   -5901.7357   -4684.5323   -3824.9566    2874.2119 
  999800    307.72794   -5928.0894   -4690.0691   -4114.0763    1925.9799 
  999850    304.50007   -5891.6651   -4666.6309   -4222.9177    1483.6687 
  999900    301.69312   -5843.2193   -4629.4777   -4006.6553    2082.5665 
  999950    300.60113   -5808.4445   -4599.0961   -3837.6236     2546.179 
 1000000    313.97473   -5843.4906   -4580.3389   -3792.8263    2633.2506 
Loop time of 4377.99 on 8 procs for 1000000 steps with 2004 atoms

Performance: 39.470 ns/day, 0.608 hours/ns, 228.415 timesteps/s
100.0% CPU use with 8 MPI tasks x no OpenMP threads

MPI task timing breakdown:
Section |  min time  |  avg time  |  max time  |%varavg| %total
---------------------------------------------------------------
Pair    | 3142.9     | 3162.5     | 3203.3     |  32.9 | 72.24
Bond    | 4.2919     | 8.0066     | 14.565     | 100.6 |  0.18
Kspace  | 530.64     | 563.02     | 589.02     |  77.7 | 12.86
Neigh   | 325.22     | 328.11     | 329.74     |   9.5 |  7.49
Comm    | 138.06     | 149.33     | 167.31     |  87.6 |  3.41
Output  | 1.2501     | 1.2643     | 1.2803     |   0.8 |  0.03
Modify  | 139.49     | 143.33     | 146.42     |  20.4 |  3.27
Other   |            | 22.39      |            |       |  0.51

Nlocal:    250.5 ave 261 max 232 min
Histogram: 1 0 0 0 2 0 0 2 2 1
Nghost:    4971.88 ave 5007 max 4940 min
Histogram: 2 0 0 1 1 1 1 1 0 1
Neighs:    88456.4 ave 91877 max 79452 min
Histogram: 1 0 0 0 0 1 2 0 0 4

Total # of neighbors = 707651
Ave neighs/atom = 353.119
Ave special neighs/atom = 2.34032
Neighbor list builds = 91163
Dangerous builds = 0

write_restart     ${rep}/restart.peptide.*
write_restart     1/restart.peptide.*
PPPM initialization ...
WARNING: Using 12-bit tables for long-range coulomb (../kspace.cpp:321)
  G vector (1/distance) = 0.268725
  grid = 15 15 15
  stencil order = 5
  estimated absolute RMS force accuracy = 0.0228209
  estimated relative force accuracy = 6.87243e-05
  using double precision FFTs
  3d grid and FFT values/proc = 2744 512
RESTMD: #replicas= 2  walker= 1
STMD: STAGE= 1, #bins= 168  binsize= 12.000000
  Emin= -7500.000000 Emax= -5500.000000 f-value= 1.024290 df= 0.001000
  f-tolerances: STG3= 1.000000 STG4= 1.000000
write_data        data.peptide.${rep}
write_data        data.peptide.1
PPPM initialization ...
WARNING: Using 12-bit tables for long-range coulomb (../kspace.cpp:321)
  G vector (1/distance) = 0.268725
  grid = 15 15 15
  stencil order = 5
  estimated absolute RMS force accuracy = 0.0228209
  estimated relative force accuracy = 6.87243e-05
  using double precision FFTs
  3d grid and FFT values/proc = 2744 512
RESTMD: #replicas= 2  walker= 1
STMD: STAGE= 1, #bins= 168  binsize= 12.000000
  Emin= -7500.000000 Emax= -5500.000000 f-value= 1.024290 df= 0.001000
  f-tolerances: STG3= 1.000000 STG4= 1.000000
Total wall time: 1:12:58
