LAMMPS (30 Nov 2016)
# LJ particles
variable        T0 equal 300.0
variable        TL equal 250.0
variable        TH equal 350.0

units           real
atom_style      full
pair_style      lj/cut 5.0

read_data       "lj-stg3.data"
  orthogonal box = (1.06874 1.06874 1.06874) to (23.9313 23.9313 23.9313)
  1 by 2 by 2 MPI processor grid
  reading atoms ...
  500 atoms
  reading velocities ...
  500 velocities
  0 = max # of 1-2 neighbors
  0 = max # of 1-3 neighbors
  0 = max # of 1-4 neighbors
  1 = max # of special neighbors

thermo          10
thermo_style    custom step temp pe etotal press

timestep        1.0

fix             fxnvt all nvt temp ${T0} ${T0} 1000.0
fix             fxnvt all nvt temp 300 ${T0} 1000.0
fix             fxnvt all nvt temp 300 300 1000.0
fix             fxSTMD all stmd 100000 sqrt 1.01 ${TL} ${TH} -3500 -2250 2 10000 100000 ${T0} 1
fix             fxSTMD all stmd 100000 sqrt 1.01 250 ${TH} -3500 -2250 2 10000 100000 ${T0} 1
fix             fxSTMD all stmd 100000 sqrt 1.01 250 350 -3500 -2250 2 10000 100000 ${T0} 1
fix             fxSTMD all stmd 100000 sqrt 1.01 250 350 -3500 -2250 2 10000 100000 300 1

run             100000
STMD: STAGE= 3 #bins= 626  binsize 2
Neighbor list info ...
  1 neighbor list requests
  update every 1 steps, delay 10 steps, check yes
  max neighbors/atom: 2000, page size: 100000
  master list distance cutoff = 7
  ghost atom cutoff = 7
  binsize = 3.5 -> bins = 7 7 7
Memory usage per processor = 5.37655 Mbytes
Step Temp PotEng TotEng Press 
       0    299.26326   -3147.7656   -2702.6342    1874.9717 
      10     303.4172   -3152.7849   -2701.4748    1727.5463 
      20    306.54363   -3156.4007   -2700.4403    1615.0175 
      30    307.19529   -3157.8697     -2700.94    1569.8205 
      40    305.12931   -3153.9973   -2700.1406    1634.6943 
      50    301.43002   -3147.9673    -2699.613    1758.5465 
      60    297.88991   -3144.5005   -2701.4118    1860.5667 
      70    295.67344   -3142.1516   -2702.3597    1935.9679 
      80    294.81984   -3140.3093   -2701.7871     1986.567 
      90     294.8372   -3140.9911   -2702.4431    1992.3309 
     100    295.43238   -3142.5188   -2703.0855    1975.3049 
     110    296.43083   -3142.5732   -2701.6548     1965.262 
     120    297.56526   -3143.1897   -2700.5839    1946.1271 
     130     298.3105   -3144.2442   -2700.5299    1928.4907 
     140    298.05481   -3143.6622   -2700.3282     1947.566 
     150      296.148   -3140.6394   -2700.1417    2021.6628 
     160    292.55042   -3136.0435   -2700.8969    2142.3477 
     170    287.96381   -3131.3853   -2703.0609    2281.5545 
     180    283.64646   -3126.3527   -2704.4501    2424.8412 
     190     280.7679   -3124.0515   -2706.4306    2515.8197 
     200    279.81984   -3121.9191   -2705.7083    2573.3355 
     210     280.3814   -3123.5276   -2706.4815    2561.3532 
     220    281.83214   -3126.6351   -2707.4311    2513.2983 
     230    283.51568   -3128.7141    -2707.006     2465.667 
     240    284.94698   -3129.2934   -2705.4564    2431.2852 
     250    286.23608    -3131.666   -2705.9115    2374.1959 
     260    287.96983   -3132.2103    -2703.877    2326.5907 
     270    290.51241    -3136.771   -2704.6558    2219.5615 
     280    293.38034   -3139.8865   -2703.5055    2122.6921 
     290    295.52696   -3141.3146   -2701.7407    2054.8517 
     300    296.39251   -3143.2582   -2702.3969     2002.612 
     310    296.15256   -3143.0397   -2702.5352    1994.7785 
     320    295.42733   -3141.9563   -2702.5305     2007.091 
     330    294.80078   -3139.9413   -2701.4475     2029.629 
     340    294.55433   -3138.5302   -2700.4029     2038.506 
     350     294.7646   -3137.8149   -2699.3749    2028.6144 
     360    295.60816   -3137.3574   -2697.6627    2001.6681 
     370     297.3786    -3139.492   -2697.1639    1928.9175 
     380    300.25766   -3142.9995    -2696.389    1824.3444 
     390    303.85459   -3148.9769   -2697.0163     1685.029 
     400     307.1563    -3153.273   -2696.4012    1575.8401 
     410    309.15227   -3155.0286    -2695.188    1523.9046 
     420    309.41362   -3154.7692   -2694.5399    1530.5583 
     430    307.96533   -3153.7063   -2695.6312    1580.9378 
     440    305.06982   -3150.3261   -2696.5578    1686.5141 
     450     301.1354   -3146.8436   -2698.9275    1812.7455 
     460    296.80622   -3141.2904   -2699.8137    1967.3047 
     470    292.87701   -3136.3665   -2700.7342    2105.8873 
     480    289.87231   -3132.0579   -2700.8948    2220.2056 
     490    287.73006   -3129.4433   -2701.4666     2299.127 
     500    286.04289   -3127.9237   -2702.4566    2354.3316 
     510     284.9695   -3126.7787   -2702.9082    2391.0613 
     520    285.10194   -3128.0612   -2703.9937    2379.2054 
     530    286.84257   -3130.5793   -2703.9227    2325.2643 
     540    290.09728   -3134.0395   -2702.5418    2235.5734 
     550    294.05998   -3138.6136   -2701.2216    2119.9589 
     560    297.45507   -3142.8726   -2700.4307    2011.9642 
     570    299.67376   -3145.6734   -2699.9314    1936.0322 
     580    300.66256   -3145.8966   -2698.6839    1907.2165 
     590    300.82226   -3144.1665   -2696.7162    1914.7222 
     600    300.61669   -3143.3016    -2696.157     1920.892 
     610    300.23667   -3143.4027   -2696.8234    1921.2937 
     620      299.682   -3142.2347   -2696.4805     1940.413 
     630    299.04825   -3140.5754   -2695.7638    1968.4817 
     640    298.49789   -3140.4636   -2696.4706    1980.7789 
     650    298.04754    -3139.028   -2695.7049    2009.3834 
     660     297.5318   -3138.2997   -2695.7437    2034.0288 
     670     296.9589   -3137.1064   -2695.4025    2067.1745 
     680    296.88579    -3137.057   -2695.4619    2083.7614 
     690     297.9615   -3138.5627   -2695.3676    2069.0539 
     700    300.13335    -3141.687   -2695.2614    2021.5719 
     710     302.5134   -3145.0688   -2695.1031    1966.9265 
     720    304.21275   -3146.4249   -2693.9314    1939.6509 
     730    305.18488   -3146.7481   -2692.8087     1929.695 
     740    305.81732   -3148.3591    -2693.479     1905.779 
     750    306.51548    -3150.182   -2694.2634    1874.1255 
     760    307.44996   -3149.5365    -2692.228    1863.9292 
     770      308.302   -3151.6818    -2693.106      1823.23 
     780     308.5081   -3151.3187   -2692.4363    1821.6512 
     790    307.66554   -3150.0525   -2692.4233    1847.5116 
     800    306.02195   -3149.1095    -2693.925    1884.2567 
     810    304.18991   -3146.8793   -2694.4198    1940.6082 
     820    302.57143   -3144.2557   -2694.2037    1999.4759 
     830    301.23088   -3142.2447   -2694.1866    2047.6253 
     840    299.95451   -3139.3924   -2693.2328    2102.0159 
     850    298.53245   -3137.6756   -2693.6312    2142.7026 
     860    296.89053   -3136.0768   -2694.4746    2182.5266 
     870    295.29325   -3134.3972   -2695.1709    2220.8599 
     880    294.33043   -3133.6384   -2695.8442    2239.1788 
     890    294.20877   -3132.8663   -2695.2531    2246.3703 
     900    294.34778   -3133.2068   -2695.3868    2238.2515 
     910    294.04374   -3132.7281   -2695.3603    2247.2961 
     920    292.93157   -3131.5042   -2695.7907    2277.8526 
     930    291.28207    -3129.588    -2696.328    2325.1253 
     940    289.76322    -3128.356   -2697.3552    2363.5243 
     950    289.11763   -3126.9121   -2696.8715    2390.3293 
     960    289.73225   -3127.7008   -2696.7461    2371.4766 
     970    291.31574   -3129.5785   -2696.2684    2325.1635 
     980    293.10783   -3133.1489   -2697.1732    2257.5993 
     990    294.81139   -3135.0088   -2696.4992    2212.0677 
    1000    296.38418   -3137.2265   -2696.3775    2166.5183 
    1010    297.90781   -3139.3792   -2696.2639     2125.855 
    1020    299.16352   -3141.0667   -2696.0836    2096.6918 
    1030     299.8946   -3141.1786   -2695.1081     2094.286 
    1040    300.12642   -3139.3551   -2692.9398    2122.1549 
    1050    300.13173   -3138.3024   -2691.8792    2146.1887 
    1060    300.18056   -3136.7769   -2690.2811    2176.5242 
    1070    300.14133   -3136.1924   -2689.7549    2198.6169 
    1080    299.54083   -3135.4354   -2689.8911    2232.4796 
    1090    297.94709   -3133.4436   -2690.2699    2295.2026 
    1100    295.61233   -3130.2476   -2690.5466    2382.2865 
    1110    293.27895   -3128.7344   -2692.5042    2449.5296 
    1120    292.16826   -3127.8422    -2693.264     2488.596 
    1130    293.10175   -3130.0438   -2694.0772    2457.8534 
    1140    295.88247   -3132.1956   -2692.0928    2395.6766 
    1150    299.75054   -3137.0993   -2691.2431    2285.5344 
    1160    303.08927   -3141.3347   -2690.5123    2190.8559 
    1170    304.29006   -3142.3901   -2689.7817    2165.6592 
    1180    302.71261   -3140.7884   -2690.5263    2214.4706 
    1190    299.01027   -3135.6302   -2690.8751    2335.9792 
    1200    294.80636    -3130.758   -2692.2559    2461.9006 
    1210    291.65839   -3127.1483   -2693.3286    2557.2617 
    1220    290.47867   -3125.8932   -2693.8282    2591.7264 
    1230     291.3016   -3127.6625   -2694.3735    2556.9019 
    1240    293.05944   -3129.4188   -2693.5151    2502.6347 
    1250    294.38089   -3131.5461   -2693.6768     2446.268 
    1260    294.57963   -3130.1473   -2691.9824    2443.0261 
    1270    293.67779   -3128.8082   -2691.9848    2454.0712 
    1280    292.58948   -3126.7105   -2691.5059    2476.1554 
    1290    292.67558    -3127.135   -2691.8022    2451.2701 
    1300     295.1923   -3129.9446   -2690.8685    2363.6932 
    1310    300.32797   -3135.9915   -2689.2764    2203.1961 
    1320    307.03472   -3143.4193   -2686.7284    2005.7445 
    1330    313.60211     -3151.46   -2685.0006    1808.2479 
    1340    318.43837   -3157.7428   -2684.0899    1663.2113 
    1350    320.49243   -3160.3125   -2683.6043    1609.2036 
    1360    319.67408   -3156.6915   -2681.2005    1675.4248 
    1370    316.86593   -3152.3151   -2681.0011    1784.9253 
    1380     313.5734   -3149.1849   -2682.7682    1890.7941 
    1390    310.91035   -3146.3081   -2683.8525    1983.9765 
    1400    309.26503   -3144.6939   -2684.6856    2043.8079 
    1410     308.5941     -3144.29   -2685.2797    2071.1125 
    1420    308.49687   -3145.2554   -2686.3896    2072.1853 
    1430    308.33261   -3144.2936   -2685.6722    2095.0442 
    1440    307.47055    -3143.257   -2685.9179    2129.0095 
    1450    305.66231   -3142.2318   -2687.5823     2177.165 
    1460    303.26888   -3138.5061   -2687.4166    2262.8556 
    1470     301.3277   -3136.1288   -2687.9267    2324.8169 
    1480     300.9084    -3134.323   -2686.7446    2356.2023 
    1490    302.21752   -3135.9714   -2686.4458     2323.671 
    1500    304.05117   -3136.9523   -2684.6993    2290.1554 
    1510    304.81837   -3135.5554   -2682.1612    2298.9465 
    1520    303.84568   -3134.8872   -2682.9398    2325.2194 
    1530     301.9866   -3130.6066   -2681.4244    2405.5668 
    1540     300.5857   -3129.5042   -2682.4058     2445.212 
    1550    300.68482   -3129.7638   -2682.5179    2449.3493 
    1560    302.28267   -3131.5071   -2681.8846    2417.2131 
    1570    304.14131   -3133.8227   -2681.4355    2376.1838 
    1580     304.6793   -3134.6178   -2681.4305     2371.219 
    1590      303.402    -3133.024   -2681.7366    2418.6748 
    1600    301.36465   -3131.2603   -2683.0032    2478.5886 
    1610    300.00346   -3130.4516   -2684.2192    2516.3341 
    1620    300.13466   -3129.1527   -2682.7251    2532.9163 
    1630    301.83727   -3130.3593   -2681.3993    2491.5283 
    1640    304.70595   -3133.6516   -2680.4246    2404.2053 
    1650    307.99795   -3136.6543   -2678.5307    2309.3555 
    1660      310.665   -3140.0603   -2677.9696    2217.4168 
    1670     312.0562   -3142.5368   -2678.3769    2156.8315 
    1680    311.93221   -3141.6865    -2677.711    2161.1892 
    1690    310.07628   -3139.8763   -2678.6614    2208.6329 
    1700    306.54345   -3134.4085   -2678.4484    2327.0027 
    1710    302.37999   -3128.4886   -2678.7213     2465.636 
    1720    299.23949   -3123.8644   -2678.7683    2579.0563 
    1730     298.6414   -3122.4099   -2678.2034     2624.163 
    1740    300.74693   -3124.4931   -2677.1548    2595.1259 
    1750    304.33342   -3128.8011   -2676.1282    2526.0758 
    1760    306.68823   -3131.4482   -2675.2727    2500.1777 
    1770    305.65308   -3130.7501   -2676.1143    2567.3796 
    1780    301.14555   -3123.1893   -2675.2581    2764.7963 
    1790    295.44909   -3115.7454   -2676.2873     2979.269 
    1800    291.11112   -3110.3597    -2677.354    3144.7295 
    1810    289.67726   -3107.3651   -2676.4921    3227.2567 
    1820    291.79407   -3109.5259   -2675.5043     3181.762 
    1830    296.65921   -3115.9788   -2674.7207     3033.668 
    1840    302.64565   -3122.5892   -2672.4268    2857.1613 
    1850     307.8352   -3128.8707   -2670.9892    2691.7462 
    1860    310.85885   -3132.8283   -2670.4493    2585.5598 
    1870    311.62977   -3133.0286   -2669.5029    2559.8819 
    1880    310.86036   -3131.5711   -2669.1899    2579.5617 
    1890    309.59504   -3130.7986   -2670.2995    2603.2397 
    1900    308.64049   -3129.2277   -2670.1484    2633.7979 
    1910    308.52125   -3128.9745   -2670.0725    2638.3006 
    1920    309.28948   -3129.7054   -2669.6607    2618.7626 
    1930    310.27537   -3130.1866   -2668.6755    2600.0533 
    1940      310.364   -3130.4551   -2668.8121    2599.7003 
    1950    308.66323     -3128.47   -2669.3569    2652.9421 
    1960    305.33888   -3123.6811   -2669.5126    2761.3558 
    1970    301.74131   -3119.0192   -2670.2018    2872.5623 
    1980    299.61869   -3117.6594   -2671.9993     2926.022 
    1990     299.9671    -3118.785   -2672.6066    2914.4153 
    2000    302.18879   -3121.1087   -2671.6258    2858.8863 
    2010    304.90288   -3122.8512   -2669.3313    2799.4601 
    2020    307.42504    -3125.511   -2668.2395     2729.817 
    2030    309.86468    -3129.502   -2668.6017    2643.2576 
    2040    312.11051   -3130.2435   -2666.0027    2592.0994 
    2050    314.15324   -3131.3757   -2664.0966    2537.9964 
    2060    316.07454   -3133.2611   -2663.1242    2476.0111 
    2070    317.90832   -3136.3428   -2663.4783    2402.1164 
    2080    319.53025   -3137.9763   -2662.6992    2350.2957 
    2090    320.97886    -3138.477   -2661.0452    2320.0996 
    2100    322.24837   -3138.8868   -2659.5668     2302.284 
    2110    322.85594   -3137.9542   -2657.7305    2318.2217 
    2120    322.17155   -3136.2125   -2657.0067    2368.0547 
    2130    320.40425   -3135.2376   -2658.6605    2427.2304 
    2140    318.49634   -3132.6453   -2658.9061    2503.9615 
    2150    317.43244   -3132.6787    -2660.522    2531.9522 
    2160    317.90211   -3132.7853     -2659.93    2528.4516 
    2170    319.57214   -3134.7791   -2659.4398    2477.4851 
    2180    321.41559   -3137.2515   -2659.1702    2411.0719 
    2190    322.48093   -3138.8936   -2659.2277    2359.9671 
    2200    322.65386   -3137.3273   -2657.4042    2355.9355 
    2210    322.50469   -3136.0273    -2656.326    2355.2941 
    2220    322.66382   -3135.1152   -2655.1772    2350.4007 
    2230    323.17552   -3135.0406   -2654.3415    2337.6785 
    2240    323.47888   -3135.2383    -2654.088    2335.3319 
    2250    322.62869   -3133.4859   -2653.6001    2384.2304 
    2260    319.80752   -3130.1804   -2654.4909    2492.9789 
    2270    314.81005    -3123.884   -2655.6279    2680.6855 
    2280    308.44724    -3115.509   -2656.7172     2921.992 
    2290    301.93352   -3107.0782    -2657.975    3171.5645 
    2300    296.40759   -3101.1895   -2660.3057    3374.4675 
    2310    292.58908   -3096.3887   -2661.1846    3530.1808 
    2320    290.66483   -3095.0944   -2662.7525    3604.3318 
    2330    291.88023   -3095.7682   -2661.6185    3589.6787 
    2340    296.90345   -3101.6207   -2659.9993    3443.3559 
    2350    304.88434   -3112.5126   -2659.0202    3185.6558 
    2360    313.18916   -3123.5927   -2657.7476    2917.0657 
    2370    319.18077   -3129.2358   -2654.4786    2743.5836 
    2380    321.70022   -3131.0681   -2652.5634    2669.1306 
    2390    321.31706    -3128.982   -2651.0472    2693.2361 
    2400     318.9565   -3125.0921   -2650.6685    2779.6397 
    2410    315.56534   -3120.6753   -2651.2957    2895.8802 
    2420    312.23186   -3116.8218   -2652.4005    3010.5891 
    2430    310.04687   -3112.8465   -2651.6753    3109.8285 
    2440    309.42092   -3113.1024   -2652.8622    3136.2804 
    2450    309.62588   -3112.4525   -2651.9074    3154.8644 
    2460    309.52359   -3110.6167   -2650.2238    3183.9926 
    2470    308.63648   -3110.6472   -2651.5738    3199.3309 
    2480    307.26186    -3108.071   -2651.0423    3247.4374 
    2490    305.86576   -3104.4423   -2649.4901      3303.06 
    2500     304.7364   -3102.3105   -2649.0382    3335.5663 
    2510    303.70771   -3102.0073   -2650.2651      3345.35 
    2520    303.30712   -3102.0155   -2650.8691    3341.3763 
    2530    304.35536   -3103.5572   -2650.8517    3299.0543 
    2540     306.9696     -3105.68    -2649.086    3229.1084 
    2550    310.37314   -3108.5023   -2646.8458    3143.9013 
    2560    312.67724   -3110.8799   -2645.7962    3086.3496 
    2570    312.81012   -3110.9463   -2645.6649    3095.6541 
    2580    310.74271   -3109.3182    -2647.112    3165.6918 
    2590    307.29224   -3105.2893   -2648.2154    3288.1094 
    2600    303.97615   -3101.6199   -2649.4784    3408.1519 
    2610    301.43973   -3098.2223   -2649.8535    3511.4484 
    2620    300.02815   -3096.8691   -2650.5999     3571.767 
    2630    299.95444   -3096.8048   -2650.6453    3593.9193 
    2640    301.19204   -3098.2562   -2650.2559    3573.8078 
    2650    303.49398   -3102.0934   -2650.6691    3506.1325 
    2660     306.0013   -3105.0505   -2649.8968    3438.0377 
    2670    308.11477   -3107.5433    -2649.246    3376.6223 
    2680     309.3121    -3108.617   -2648.5387    3338.9804 
    2690    309.45598   -3108.9816   -2648.6893    3320.3373 
    2700    309.32177   -3107.2789   -2647.1863    3324.6422 
    2710    309.89528   -3107.9458   -2647.0001    3286.6599 
    2720    311.45228   -3109.3791   -2646.1174     3221.256 
    2730    313.73416   -3111.7572   -2645.1014    3132.4005 
    2740    316.76249   -3115.0363   -2643.8761    3023.6636 
    2750    319.97847   -3120.7814   -2644.8377    2889.7783 
    2760      322.262   -3122.4364   -2643.0961    2824.0119 
    2770    322.69753   -3123.1988   -2643.2106    2803.8073 
    2780    321.36811   -3122.7898   -2644.7791    2829.2354 
    2790    319.43813   -3119.2486   -2644.1086    2906.2076 
    2800    317.85266   -3118.1169   -2645.3352    2958.5778 
    2810    316.51093   -3116.7694   -2645.9834    3014.4143 
    2820    314.85593   -3113.9753    -2645.651     3094.981 
    2830    312.52896   -3111.7675   -2646.9043    3180.9871 
    2840     309.2953   -3106.6266   -2646.5733    3313.5896 
    2850    305.87115   -3102.4145   -2647.4543    3436.5168 
    2860    303.36853   -3099.5609   -2648.3232    3524.2136 
    2870    303.10099   -3099.4711   -2648.6314    3536.9466 
    2880    304.78909   -3102.1824   -2648.8317    3476.3204 
    2890    307.69538   -3105.9708   -2648.2973     3373.819 
    2900     311.8575   -3110.4446   -2646.5802    3237.4334 
    2910    316.76793   -3116.0892   -2644.9209     3076.305 
    2920    321.99571   -3121.0412    -2642.097    2923.7439 
    2930    326.26473   -3125.6424   -2640.3483    2800.9058 
    2940    327.82735   -3128.1359   -2640.5176    2754.6044 
    2950    325.61763   -3123.6792   -2639.3477    2852.3508 
    2960    320.57162   -3115.5747   -2638.7487    3043.0864 
    2970    314.80241   -3107.3668   -2639.1221    3252.9815 
    2980    310.30198   -3101.0189   -2639.4683    3425.3936 
    2990    307.93107   -3097.0193   -2638.9952     3536.945 
    3000    307.27304   -3096.9587   -2639.9133    3574.3733 
    3010     307.8412   -3097.1144   -2639.2239    3583.4603 
    3020     309.4832   -3099.1054   -2638.7726    3548.4183 
    3030    312.73244   -3103.4014   -2638.2356    3453.9107 
    3040    317.51642   -3110.0441   -2637.7625    3301.8439 
    3050    323.10922    -3118.469   -2637.8685    3112.4613 
    3060     328.5588    -3126.472   -2637.7657    2929.1644 
    3070    332.65466   -3130.7668   -2635.9682    2809.9684 
    3080    334.20967   -3133.1842   -2636.0727    2755.0169 
    3090    332.97244   -3130.8011   -2635.5299    2801.9258 
    3100    329.28805   -3127.0592   -2637.2682    2906.8459 
    3110    324.32175   -3121.1788   -2638.7748    3057.8179 
    3120    319.46433     -3116.02   -2640.8411    3199.3502 
    3130    316.05628   -3111.1075   -2640.9977    3311.9297 
    3140    314.88611   -3109.6985   -2641.3293      3345.63 
    3150    315.97456   -3110.3309   -2640.3427    3313.7138 
    3160    319.03661    -3115.311   -2640.7682     3194.667 
    3170    323.41648    -3120.642   -2639.5845    3043.6205 
    3180    327.92213   -3126.0671   -2638.3078    2885.7314 
    3190    331.44143   -3130.8957   -2637.9017    2748.7578 
    3200    333.22249   -3133.6779   -2638.0347    2663.7724 
    3210    333.51615   -3134.4705   -2638.3905     2628.925 
    3220    332.75163   -3133.3057   -2638.3628    2638.6192 
    3230    331.13591   -3130.4086    -2637.869    2687.6051 
    3240    328.93076   -3126.9129   -2637.6533    2759.3285 
    3250    326.87293   -3124.5399   -2638.3411    2822.7014 
    3260    325.12183   -3122.9426   -2639.3485    2881.0198 
    3270    322.95414   -3121.0755   -2640.7057    2955.7718 
    3280    319.59808   -3115.8396   -2640.4617    3092.3809 
    3290    314.87522   -3111.0628   -2642.7098    3248.9023 
    3300    309.46306   -3103.3391   -2643.0362    3448.1759 
    3310    304.89821   -3096.6025   -2643.0895     3619.622 
    3320    302.33266   -3092.8911   -2643.1942    3718.4028 
    3330    302.36797   -3092.3927   -2642.6433    3729.6203 
    3340    304.43411   -3095.9004   -2643.0778    3654.8828 
    3350    307.54589   -3100.6487   -2643.1975    3544.5484 
    3360    310.68067   -3104.0838   -2641.9699     3446.899 
    3370    312.27695   -3107.6983     -2643.21    3373.5896 
    3380    311.32625   -3106.7213    -2643.647    3393.5662 
    3390    308.15363   -3103.9523   -2645.5971    3472.2989 
    3400    304.06092   -3097.9063   -2645.6388    3609.5549 
    3410    300.20908    -3092.758   -2646.2198    3739.4956 
    3420    297.06125   -3089.4576   -2647.6015    3836.6507 
    3430    294.97391   -3086.3983    -2647.647    3907.2408 
    3440      294.434   -3085.6567   -2647.7084     3919.174 
    3450    295.72149   -3087.0051   -2647.1418    3869.1305 
    3460    298.69829   -3090.9668   -2646.6757    3755.1631 
    3470    302.47292   -3096.7926   -2646.8871    3602.0173 
    3480    306.22768    -3100.158   -2644.6675    3476.5731 
    3490    309.93214   -3104.7215    -2643.721     3341.377 
    3500    313.18601    -3109.059   -2643.2185    3223.0066 
    3510    315.09988   -3111.8221   -2643.1349    3151.3966 
    3520    315.13267   -3112.4018   -2643.6658    3141.6785 
    3530    313.49969   -3110.5737   -2644.2667    3188.0988 
    3540    311.54243   -3106.5984   -2643.2026    3267.2059 
    3550    310.87012   -3105.6326   -2643.2368    3293.0468 
    3560    311.90937   -3105.9343   -2641.9928    3276.7033 
    3570    313.93826   -3108.9882   -2642.0288    3211.2659 
    3580    315.79152    -3111.457    -2641.741    3151.8162 
    3590     317.2159   -3114.6416   -2642.8069    3087.3296 
    3600    318.45349   -3116.0133   -2642.3379    3041.0216 
    3610    319.62345   -3115.8594   -2640.4438    3009.4839 
    3620    320.68627   -3119.7773   -2642.7808    2932.5389 
    3630    321.46573   -3121.8901   -2643.7342    2878.7316 
    3640    321.95543   -3123.6402   -2644.7559    2832.7225 
    3650    322.53017   -3124.7094   -2644.9702    2793.8418 
    3660    323.38362   -3126.1324   -2645.1238    2750.1441 
    3670    323.98065   -3126.5839   -2644.6872    2725.6342 
    3680    323.58166   -3126.3262    -2645.023    2727.9381 
    3690    322.36995   -3126.2436   -2646.7428    2744.2273 
    3700    321.38073    -3124.868   -2646.8385    2777.0922 
    3710    320.98006   -3126.4718   -2649.0383    2774.1036 
    3720    320.25907    -3125.844   -2649.4829    2805.2866 
    3730    317.98257   -3122.7383   -2649.7633    2890.5881 
    3740    313.71953    -3117.869    -2651.235    3026.5813 
    3750    308.51305   -3110.2989   -2651.4091    3205.9467 
    3760    304.09361   -3105.0099   -2652.6937     3346.555 
    3770    301.60192   -3101.7757   -2653.1657    3429.5338 
    3780     300.9334   -3101.3261   -2653.7105    3445.8601 
    3790    302.00443   -3101.8343   -2652.6255    3414.3322 
    3800    304.05283   -3103.1526   -2650.8971    3350.0859 
    3810    306.57751   -3107.7823   -2651.7715    3237.8671 
    3820    309.08324   -3111.2427   -2651.5048     3134.732 
    3830    311.12319   -3114.7044   -2651.9323    3038.9307 
    3840    312.34791   -3116.5997   -2652.0058    2974.4359 
    3850    312.26564   -3117.0922   -2652.6207    2948.9079 
    3860    310.75196   -3115.8874   -2653.6674    2967.8637 
    3870    308.18997   -3112.9563   -2654.5471    3025.8302 
    3880     305.3938   -3110.4791   -2656.2289    3087.6561 
    3890    302.85886   -3107.9117   -2657.4321    3152.2036 
    3900    301.01621     -3104.04   -2656.3012    3221.5501 
    3910    299.78305   -3102.6362   -2656.7316    3253.4389 
    3920    298.98715    -3102.733   -2658.0123    3257.7044 
    3930    299.20731   -3102.6018   -2657.5536    3243.5053 
    3940    300.93542   -3106.3846   -2658.7659    3156.5156 
    3950    304.19196   -3111.7669   -2659.3044     3019.324 
    3960    308.27565   -3116.4498   -2657.9131    2871.7278 
    3970    312.57123   -3122.1668   -2657.2408    2705.1743 
    3980    316.92195   -3128.0157   -2656.6184    2535.4003 
    3990    321.55469   -3134.6079   -2656.3196    2355.4427 
    4000    326.43417   -3140.9357   -2655.3896    2181.4086 
    4010    330.53053   -3144.7311    -2653.092    2055.8374 
    4020    332.40784   -3146.7135    -2652.282    1993.1562 
    4030    331.40053   -3144.4705   -2651.5373    2032.5062 
    4040     327.8892   -3141.4975   -2653.7872    2130.3661 
    4050    322.95419   -3135.5824   -2655.2126    2293.0094 
    4060    317.83702   -3128.0731   -2655.3146    2484.6312 
    4070    313.18574   -3123.5066   -2657.6666    2637.3395 
    4080    309.79249   -3120.8687   -2660.0759    2746.3897 
    4090    308.20977   -3119.7326   -2661.2939     2804.473 
    4100    308.31411   -3120.8788    -2662.285    2804.2278 
    4110    309.05209   -3123.8786    -2664.187    2764.0786 
    4120    309.75077   -3125.1163   -2664.3855    2735.0677 
    4130    310.46095   -3126.6267   -2664.8396    2697.3769 
    4140    311.29522   -3128.0374   -2665.0094    2658.1079 
    4150    311.79468   -3129.6991   -2665.9282    2623.1804 
    4160    311.36866   -3129.5432   -2666.4059    2625.4926 
    4170    310.15661   -3127.8761   -2666.5417    2661.0817 
    4180    308.79218     -3126.68    -2667.375    2698.5916 
    4190     307.6603   -3125.6486   -2668.0272    2734.1784 
    4200    306.70687    -3124.311   -2668.1078    2773.6097 
    4210     305.5601   -3122.8568   -2668.3593    2819.2329 
    4220     304.0803   -3121.2371   -2668.9407    2872.0563 
    4230     302.4959   -3119.6078   -2669.6681    2925.3471 
    4240    301.02297   -3120.2226   -2672.4737    2947.7788 
    4250    299.86675   -3119.9201   -2673.8911    2969.2579 
    4260    299.36198   -3119.2593    -2673.981    2974.8551 
    4270    300.16212   -3120.2567   -2673.7883    2930.9853 
    4280    302.70089   -3124.0982   -2673.8535    2818.3075 
    4290    306.80337    -3128.424   -2672.0773    2670.1035 
    4300    311.12164   -3134.5969   -2671.8271    2497.4842 
    4310    313.87382   -3137.8625    -2670.999      2385.75 
    4320    313.36174   -3135.7644   -2669.6626    2391.1014 
    4330    309.01856   -3130.8651   -2671.2234    2496.1063 
    4340    302.11708   -3121.5054   -2672.1292    2700.9363 
    4350    295.60971   -3115.2709   -2675.5739    2875.2846 
    4360    292.23688   -3113.6806   -2679.0004    2956.5812 
    4370    292.39609   -3114.3523   -2679.4352    2958.1779 
    4380    294.45558   -3117.0583   -2679.0779    2901.8653 
    4390    296.51128   -3119.6112   -2678.5731    2838.8822 
    4400    297.22755   -3120.3201   -2678.2166    2805.7653 
    4410    296.54405   -3120.0263   -2678.9395    2795.4919 
    4420    295.63558   -3117.9919   -2678.2564    2799.6774 
    4430    295.90634   -3117.3214   -2677.1831    2765.7671 
    4440    297.61949     -3120.06   -2677.3736    2669.3804 
    4450    299.80271   -3123.8994   -2677.9656    2553.1957 
    4460    301.36933   -3129.5569   -2681.2929    2427.1729 
    4470    302.24996    -3128.701   -2679.1271    2388.7213 
    4480    303.18194   -3130.6709   -2679.7107    2327.0056 
    4490    304.42933   -3132.3601   -2679.5445      2273.54 
    4500    305.66976   -3134.1536    -2679.493    2226.2088 
    4510    306.60605   -3134.5099   -2678.4567    2204.3816 
    4520    307.26741   -3136.0959   -2679.0589    2179.3603 
    4530    307.58584   -3136.3318   -2678.8212    2179.3061 
    4540    307.43893   -3136.1191    -2678.827    2194.7667 
    4550    306.81865   -3136.3638   -2679.9943    2215.2181 
    4560    305.91085   -3138.6078   -2683.5886    2221.1695 
    4570    304.79337   -3139.1402   -2685.7832    2252.6126 
    4580    303.32802   -3137.2605   -2686.0831    2317.3736 
    4590    301.47178   -3135.6758   -2687.2594     2384.521 
    4600    299.22822   -3132.1479   -2687.0686    2477.5967 
    4610    296.52102   -3129.5774   -2688.5248    2563.4983 
    4620    293.73206   -3126.5087   -2689.6045    2651.6414 
    4630    291.88566   -3123.9567   -2689.7989    2713.0629 
    4640    291.63849   -3124.8396   -2691.0495    2705.0736 
    4650    292.87365   -3126.1223   -2690.4949    2664.6211 
    4660    294.73084   -3128.1746   -2689.7848    2600.6486 
    4670    296.38005   -3132.0748   -2691.2319    2515.3664 
    4680    297.81324   -3135.0143   -2692.0397    2444.3143 
    4690    299.28065    -3134.963   -2689.8058    2407.6407 
    4700    300.82874    -3136.848   -2689.3881    2352.0393 
    4710    302.21697   -3137.8709   -2688.3461     2312.708 
    4720    303.22983   -3140.1314   -2689.1001     2269.275 
    4730    303.68252   -3140.2466   -2688.5419    2262.4335 
    4740    303.17253   -3140.0846   -2689.1384    2275.1433 
    4750    301.68075   -3137.5144   -2688.7872    2327.2873 
    4760    299.98557   -3135.0803   -2688.8745    2376.8049 
    4770    299.05847   -3134.3823   -2689.5555    2389.4794 
    4780    299.47037   -3135.7318   -2690.2923    2348.9492 
    4790    301.60435   -3137.3741   -2688.7605    2269.1662 
    4800    305.48469   -3143.0168   -2688.6314    2111.5304 
    4810    310.56885   -3149.8907   -2687.9431    1919.6232 
    4820    315.82666   -3156.9768   -2687.2086    1728.4382 
    4830    319.51468   -3162.5127   -2687.2589    1587.9372 
    4840    320.02416   -3163.0595   -2687.0478    1564.1975 
    4850    316.89186   -3158.4318   -2687.0792     1667.554 
    4860    311.04118   -3150.9578   -2688.3076     1856.704 
    4870    304.11517   -3142.4027   -2690.0544    2081.3583 
    4880    297.90467   -3135.6504   -2692.5398    2276.9231 
    4890    293.60515   -3131.6391   -2694.9237    2410.0309 
    4900    291.52315   -3129.2954   -2695.6768    2485.5094 
    4910    291.55114   -3129.7353   -2696.0751    2492.5131 
    4920    293.15363   -3132.2819   -2696.2381    2449.2366 
    4930    295.20236   -3136.2706   -2697.1795    2381.8274 
    4940    296.22587   -3136.7442   -2696.1306    2366.1881 
    4950    295.49071    -3135.952    -2696.432    2387.2377 
    4960    293.46938   -3132.3753   -2695.8618    2453.9363 
    4970    291.27399   -3130.5256   -2697.2776     2499.204 
    4980    289.91632   -3129.1822   -2697.9536    2519.8492 
    4990    290.18334   -3130.2799   -2698.6542    2481.9947 
    5000    292.09459   -3131.6004   -2697.1319     2409.425 
    5010    295.32964   -3136.3701   -2697.0896    2273.2372 
    5020    299.23451   -3141.5636   -2696.4749    2118.9547 
    5030    303.13375   -3147.5407   -2696.6522    1958.0083 
    5040    306.45622   -3151.7496   -2695.9192    1833.7126 
    5050    308.46721   -3153.9373   -2695.1157    1762.0846 
    5060    308.64634   -3153.7233   -2694.6352    1757.5403 
    5070    306.92646   -3149.1817   -2692.6519    1843.2904 
    5080    303.80051   -3145.1295   -2693.2493    1958.8982 
    5090    299.93637   -3140.4263   -2694.2937     2105.127 
    5100    296.04251   -3135.1565   -2694.8157    2268.7115 
    5110    292.44112   -3132.7408   -2697.7568    2402.8167 
    5120    288.94418   -3128.0432   -2698.2607    2562.7408 
    5130    285.24331   -3123.4814   -2699.2036    2719.3628 
    5140    281.81713   -3119.0719   -2699.8902    2858.6074 
    5150    280.07132    -3116.909   -2700.3242    2931.0373 
    5160     281.3888    -3119.828   -2701.2835    2881.8455 
    5170    285.48015   -3124.6674   -2700.0373    2749.9524 
    5180    290.76036   -3131.5967   -2699.1127    2558.5337 
    5190    295.93996   -3136.3691   -2696.1809    2379.9428 
    5200     300.7116   -3141.9349   -2694.6492    2192.3911 
    5210    305.18877   -3148.4532    -2694.508    2000.0032 
    5220      309.293   -3152.4034   -2692.3535    1848.2995 
    5230    312.65597   -3155.6967   -2690.6447    1724.9929 
    5240    314.94107   -3157.6582   -2689.2072    1644.2885 
    5250    316.00053   -3158.3658    -2688.339    1608.1575 
    5260    315.54389   -3158.9084   -2689.5608    1607.7485 
    5270    313.14603   -3156.5228   -2690.7418    1677.0779 
    5280    308.92082   -3151.7409   -2692.2446    1806.0347 
    5290    303.80826    -3145.987   -2694.0953    1960.3827 
    5300    299.23221   -3141.8212    -2696.736    2085.5773 
    5310    296.31108   -3137.8652    -2697.125    2177.6957 
    5320    295.16089   -3137.4175   -2698.3881    2194.5101 
    5330    295.43846   -3138.2125   -2698.7702    2165.9069 
    5340    296.62596    -3138.953   -2697.7444    2115.4854 
    5350    298.18629    -3140.808   -2697.2785    2040.0598 
    5360    299.88112   -3142.6985    -2696.648     1958.569 
    5370    301.62759   -3143.9973   -2695.3491    1882.5524 
    5380    303.13874   -3146.1884   -2695.2925      1803.22 
    5390    303.83008   -3147.8902    -2695.966    1747.6828 
    5400    303.04841   -3146.4471   -2695.6855    1757.3082 
    5410    300.36951    -3143.965   -2697.1881    1814.8157 
    5420    296.38586   -3139.6055    -2698.754     1919.364 
    5430    292.62285    -3133.807   -2698.5526    2042.6081 
    5440    290.19283   -3130.5567   -2698.9169    2120.0451 
    5450    289.34342   -3129.9279   -2699.5515    2142.1654 
    5460    290.29725   -3130.9121    -2699.117    2113.6775 
    5470    293.22419   -3133.9525   -2697.8037    2029.0848 
    5480    297.53504   -3137.6299   -2695.0691    1914.4049 
    5490     301.8012   -3143.7454    -2694.839    1773.0988 
    5500    305.02024   -3148.0433   -2694.3488    1671.9431 
    5510    307.14931   -3151.7759   -2694.9146    1602.2243 
    5520    308.40813   -3153.3798   -2694.6461    1581.8058 
    5530    308.47314   -3153.6378   -2694.8074    1606.0687 
    5540    306.92769   -3150.8479   -2694.3162    1696.1606 
    5550    303.97598   -3146.7102    -2694.569    1826.4724 
    5560     300.2199   -3142.7517   -2696.1974    1965.9967 
    5570    296.34532   -3138.3889   -2697.5977    2107.5754 
    5580    292.90045   -3134.1618   -2698.4945    2232.7052 
    5590    290.53342   -3133.3663   -2701.2199    2294.1325 
    5600    289.50285   -3132.7807   -2702.1671    2325.0063 
    5610    289.35325    -3132.108    -2701.717    2336.3533 
    5620    289.31621   -3132.2274   -2701.8914    2331.8304 
    5630    288.80658   -3130.9645   -2701.3866    2348.9178 
    5640    287.43071   -3129.7839   -2702.2525     2379.841 
    5650    285.41677   -3126.8913   -2702.3554    2443.0254 
    5660    283.47432   -3124.2155    -2702.569    2505.6476 
    5670     282.3795   -3124.3038   -2704.2857     2528.332 
    5680    282.58135   -3123.1286   -2702.8103    2547.7644 
    5690    283.78541   -3123.7365   -2701.6272    2532.5827 
    5700    285.32422   -3124.7556   -2700.3574    2507.1154 
    5710    286.50232   -3126.7588   -2700.6083    2473.6026 
    5720     287.0069   -3127.6526   -2700.7516    2459.0545 
    5730    287.07824   -3127.6067   -2700.5996    2458.7448 
    5740    287.20776   -3127.4998      -2700.3    2454.8763 
    5750    287.78005   -3129.2612   -2701.2102    2419.6001 
    5760    288.92208   -3131.3421   -2701.5923     2369.389 
    5770    290.75373   -3133.2176   -2700.7435    2310.6258 
    5780    292.98385   -3135.9668   -2700.1755    2237.8579 
    5790    294.60421   -3138.6139   -2700.4125    2177.8567 
    5800    294.72089   -3139.5262   -2701.1512     2163.943 
    5810    293.18418   -3137.0722   -2700.9829    2217.3397 
    5820    290.37966    -3134.359   -2702.4412    2295.1488 
    5830    286.95433   -3128.2017   -2701.3789    2419.6447 
    5840    283.72757   -3123.6063    -2701.583    2518.5172 
    5850    281.78074   -3120.9774   -2701.8499     2567.322 
    5860    281.92109   -3120.5925   -2701.2562    2546.1876 
    5870    284.85446   -3124.6524   -2700.9529    2420.8736 
    5880    290.69692   -3133.3706   -2700.9809    2192.7169 
    5890    298.32085   -3140.9375   -2697.2078    1950.0846 
    5900    305.46894   -3149.3583   -2694.9964    1707.1295 
    5910    310.31752   -3155.3211   -2693.7473    1533.5476 
    5920    312.50235   -3158.3763   -2693.5527    1446.5317 
    5930    312.57105   -3159.7332   -2694.8075    1428.3754 
    5940    310.93073   -3158.0539    -2695.568    1486.8776 
    5950    307.73684   -3153.7935   -2696.0583    1612.1124 
    5960    303.17148   -3146.3888   -2695.4442    1802.6791 
    5970    297.79724   -3137.8512   -2694.9004    2023.7283 
    5980    292.43043   -3132.6048   -2697.6367    2208.1644 
    5990    288.05083   -3127.7252   -2699.2714    2370.3261 
    6000    285.47444    -3124.335   -2699.7134    2481.0524 
    6010    285.01266   -3124.2381   -2700.3034    2513.9839 
    6020    286.00128    -3125.435   -2700.0298     2499.764 
    6030    287.63654   -3127.0353   -2699.1977    2460.6626 
    6040    289.61287   -3128.7992    -2698.022    2404.4613 
    6050    292.10277   -3130.7039   -2696.2231    2333.3432 
    6060    295.02458   -3133.8917    -2695.065    2239.0415 
    6070    298.12713   -3137.5522   -2694.1107     2136.395 
    6080    300.94737   -3141.2548   -2693.6184    2040.8681 
    6090    302.45142   -3143.7168   -2693.8432    1983.1792 
    6100    301.73768    -3142.905    -2694.093    1997.9921 
    6110    299.30113   -3140.0881   -2694.9003      2063.63 
    6120    296.79134   -3137.8393   -2696.3847    2127.7254 
    6130    295.64773   -3136.2297   -2696.4762    2167.1667 
    6140    296.19853   -3136.3275   -2695.7547    2162.3387 
    6150    297.84544   -3139.8889   -2696.8664     2100.966 
    6160    299.58913   -3141.9884   -2696.3723    2052.6786 
    6170    300.62761   -3143.6073   -2696.4465    2019.9464 
    6180    300.59861   -3143.3757    -2696.258    2023.3019 
    6190    299.61878   -3142.0981   -2696.4378    2053.8919 
    6200    297.89763   -3140.5607   -2697.4606    2098.5618 
    6210    295.92761   -3138.4506   -2698.2807    2154.0742 
    6220    294.03051   -3134.7172   -2697.3691    2227.1089 
    6230    292.27159   -3131.4112   -2696.6793    2292.9713 
    6240    290.82195   -3128.0736   -2695.4979    2353.5021 
    6250    290.50548   -3127.7371   -2695.6322    2361.2944 
    6260    292.27178   -3130.4078   -2695.6757     2302.586 
    6270       296.01   -3135.3922   -2695.0998    2187.4509 
    6280    300.85977   -3142.3819   -2694.8758    2032.1615 
    6290    305.57415   -3148.2833   -2693.7649    1890.0635 
    6300    309.19397   -3152.4311   -2692.5286    1783.6717 
    6310    311.17494   -3151.9177   -2689.0685    1755.5619 
    6320    311.22237   -3151.7707    -2688.851    1754.8721 
    6330    309.43828   -3150.1459   -2689.8799    1799.9806 
    6340    306.56798   -3146.6512   -2690.6546    1884.5505 
    6350    303.73318    -3142.806    -2691.026    1973.7662 
    6360    301.87592   -3139.6525   -2690.6349    2040.7317 
    6370    301.03342   -3137.8845   -2690.1201    2075.7993 
    6380    300.72217   -3137.9611   -2690.6597    2081.1065 
    6390    300.60686    -3138.805   -2691.6751    2074.6778 
    6400    300.59679   -3139.2559    -2692.141    2073.5754 
    6410     300.4476   -3138.7424   -2691.8494    2087.3944 
    6420    300.11208   -3138.2634   -2691.8694    2105.5758 
    6430    299.82525   -3137.9752   -2692.0078    2122.6935 
    6440     299.7838   -3137.7287    -2691.823    2137.9107 
    6450    299.79738   -3138.0752   -2692.1493    2148.2197 
    6460    299.43798   -3138.2235   -2692.8322    2167.5495 
    6470    298.57361   -3136.8245   -2692.7189    2211.0418 
    6480    297.58642   -3136.7164   -2694.0791    2240.5233 
    6490    297.01428   -3137.3859   -2695.5997    2252.5526 
    6500    297.19944   -3137.8121   -2695.7505    2253.0656 
    6510     297.9239   -3140.0889   -2696.9497    2220.1113 
    6520    298.60303   -3140.9926   -2696.8432    2196.8629 
    6530    298.85576   -3140.0529   -2695.5276     2193.182 
    6540    298.90559   -3139.2558   -2694.6564    2184.5219 
    6550    299.19096   -3139.2743   -2694.2504    2159.3109 
    6560    299.86162   -3139.7718   -2693.7504    2121.7544 
    6570    300.76342   -3141.4754   -2694.1126    2069.1792 
    6580    301.52713   -3142.2174   -2693.7187    2032.6717 
    6590    301.71943   -3142.3841   -2693.5993    2016.0804 
    6600    300.86109   -3139.4062   -2691.8981    2055.3963 
    6610    298.84591   -3137.2301   -2692.7195    2107.0334 
    6620    296.34633   -3134.0562   -2693.2635    2180.2142 
    6630    294.50211   -3131.6839   -2693.6344    2236.9299 
    6640    294.13615   -3131.4141   -2693.9089    2251.5488 
    6650     294.9982   -3132.0212   -2693.2337    2239.7988 
    6660    296.26394   -3133.3884   -2692.7182    2215.1588 
    6670     297.2229    -3135.551   -2693.4544    2188.0167 
    6680    297.46874    -3135.644   -2693.1817     2196.593 
    6690    296.88399   -3134.3112   -2692.7187    2235.2225 
    6700    295.69762   -3132.4931   -2692.6653    2290.0061 
    6710    294.30705   -3131.0668   -2693.3073    2345.1252 
    6720    293.04145   -3129.6465   -2693.7695     2398.261 
    6730    292.24372   -3129.0796   -2694.3892    2433.0861 
    6740    292.29266   -3129.3128   -2694.5496    2443.1955 
    6750    293.40234   -3129.9634   -2693.5497    2428.2775 
    6760    295.73335   -3132.2675   -2692.3865    2372.2543 
    6770    299.31529   -3135.6966   -2690.4878    2279.7102 
    6780    303.36768   -3139.7042   -2688.4678    2169.1012 
    6790     306.3627   -3143.1872   -2687.4959    2078.5954 
    6800    306.75025   -3143.1745   -2686.9067    2067.0346 
    6810    303.95777   -3140.2734   -2688.1593    2138.5949 
    6820    298.88114   -3134.9326   -2690.3696    2276.3887 
    6830    293.48265   -3128.2158   -2691.6826    2440.8996 
    6840    289.48406   -3123.3736    -2692.788    2570.0803 
    6850    287.50872   -3121.3008   -2693.6534    2644.0281 
    6860    286.85622   -3121.5563   -2694.8795    2675.0564 
    6870    286.66319   -3121.5987   -2695.2089    2703.1727 
    6880    286.21288    -3121.182    -2695.462    2739.8168 
    6890    285.24541   -3117.4711   -2693.1902    2818.2956 
    6900    284.12651   -3116.7126    -2694.096    2863.7756 
    6910    283.37476   -3116.6825    -2695.184    2891.4934 
    6920    283.27915     -3115.12   -2693.7637    2920.1482 
    6930    283.76847   -3115.4834   -2693.3993    2909.9925 
    6940    284.73897   -3115.8026   -2692.2749    2881.2475 
    6950    286.36732   -3117.2152   -2691.2656      2817.28 
    6960    288.99867   -3118.9779   -2689.1142    2722.0258 
    6970    292.91831   -3123.1462   -2687.4524     2570.522 
    6980    298.38669   -3129.7233   -2685.8957    2363.8457 
    6990    305.01767   -3139.4025   -2685.7118     2107.989 
    7000    311.35613    -3146.054   -2682.9354    1896.4109 
    7010     315.8745   -3152.2871   -2682.4477    1728.2033 
    7020    318.05026   -3155.6165   -2682.5409    1642.9734 
    7030    318.43854   -3156.9968   -2683.3436    1624.4296 
    7040    317.96757   -3157.3133   -2684.3607    1649.8731 
    7050    317.04881   -3156.4244   -2684.8383    1712.2403 
    7060    315.35755    -3152.477   -2683.4065    1832.5046 
    7070    312.25444   -3150.2029   -2685.7481    1961.6454 
    7080    307.56674   -3145.0458   -2687.5636    2145.9102 
    7090    302.17829   -3137.3168   -2687.8495    2363.3768 
    7100    297.56783   -3131.9927   -2689.3831    2533.4952 
    7110    294.42847   -3128.1794   -2690.2394    2652.4229 
    7120    292.53402   -3125.1576   -2690.0355    2724.9593 
    7130    291.84574   -3124.6886   -2690.5902    2728.7464 
    7140    292.95143   -3125.8054   -2690.0623    2668.5607 
    7150    296.58897   -3127.9807   -2686.8271    2545.5273 
    7160    302.31505   -3135.0125   -2685.3418    2331.1346 
    7170    308.50677   -3143.3393   -2684.4589    2095.2831 
    7180    312.92795   -3149.9965   -2684.5398    1910.2025 
    7190    313.96352   -3150.6117   -2683.6147    1855.3021 
    7200     311.3782   -3146.8699   -2683.7184    1920.9338 
    7210    306.29149   -3140.1631   -2684.5777    2077.8792 
    7220    300.30742   -3132.8717   -2686.1872    2272.7626 
    7230     294.6346   -3126.5451   -2688.2985    2465.5523 
    7240    289.92427   -3120.7437   -2689.5033    2642.5014 
    7250    286.59478   -3117.5567   -2691.2687    2766.1921 
    7260    284.88049   -3114.6996   -2690.9615    2851.5799 
    7270    284.78459   -3113.5178   -2689.9223    2877.2861 
    7280    286.29224   -3115.1663   -2689.3283    2829.0148 
    7290    289.37053   -3119.7314   -2689.3147    2708.3783 
    7300    294.03218   -3125.2077   -2687.8571    2544.5323 
    7310    299.75459   -3132.7476   -2686.8854    2338.4191 
    7320    305.21067   -3140.1438   -2686.1661    2141.9022 
    7330    308.57906   -3144.6823   -2685.6943    2016.8279 
    7340    308.72014    -3142.327   -2683.1292    2029.5867 
    7350    306.10144   -3138.2608   -2682.9581    2116.9743 
    7360    302.44511   -3134.0913   -2684.2271    2234.6223 
    7370    299.16349   -3129.5662   -2684.5832    2358.1001 
    7380    296.75738   -3126.3961   -2684.9919    2453.0458 
    7390    295.58433   -3123.3229   -2683.6636    2521.0655 
    7400    295.84684    -3123.229   -2683.1792    2524.5858 
    7410    297.69929   -3124.8668   -2682.0617    2475.6591 
    7420    300.75316   -3129.3142   -2681.9667    2371.9016 
    7430    303.49393   -3130.7554   -2679.3312    2304.4862 
    7440    304.50735   -3133.1702   -2680.2386    2254.8151 
    7450    303.41307   -3132.8234   -2681.5195    2273.0502 
    7460    300.80894   -3130.0459   -2682.6154    2349.3144 
    7470    297.60503   -3125.7265   -2683.0616    2460.0602 
    7480    294.78809   -3121.7494   -2683.2744    2568.0893 
    7490    292.50211   -3118.8034   -2683.7287    2657.9026 
    7500    290.93677   -3115.9712   -2683.2248    2731.8314 
    7510    290.44427   -3116.2149   -2684.2011    2748.0509 
    7520    291.36744   -3117.0866   -2683.6996     2725.885 
    7530    293.86052   -3119.9468   -2682.8515    2647.2294 
    7540    297.95263    -3125.714    -2682.532    2502.5785 
    7550    303.43129   -3133.0515   -2681.7204    2313.5492 
    7560    309.44147    -3138.868   -2678.5972    2132.5822 
    7570    314.76347   -3144.8776   -2676.6908    1960.8658 
    7580    318.60015   -3148.5221   -2674.6285    1842.3101 
    7590    321.00798   -3150.5238   -2673.0487    1774.2622 
    7600    322.11198   -3151.9679   -2672.8507    1745.8923 
    7610    321.61259   -3150.7711   -2672.3967     1784.243 
    7620    319.21371   -3148.6689   -2673.8627    1870.5187 
    7630    315.37467   -3143.8633   -2674.7673    2015.3255 
    7640    310.98262   -3137.8553   -2675.2923     2184.775 
    7650    306.83517   -3133.6003   -2677.2062     2329.202 
    7660    303.39778   -3127.5556   -2676.2744    2476.2631 
    7670    301.00017   -3124.9271   -2677.2122    2557.6346 
    7680    300.22894   -3124.3223   -2677.7545    2577.7838 
    7690    301.48657   -3125.2102   -2676.7718    2535.7627 
    7700    304.91623   -3128.1553   -2674.6155    2426.4432 
    7710    309.79722   -3136.0642   -2675.2643    2233.8267 
    7720      314.701   -3141.3231   -2673.2292    2070.1495 
    7730    317.82743   -3145.4321   -2672.6879    1950.7836 
    7740    318.29241    -3146.901   -2673.4652    1912.6095 
    7750    316.20905   -3143.8961   -2673.5591    1978.5327 
    7760    312.14571   -3139.1033   -2674.8102     2109.636 
    7770     306.8675   -3133.0648   -2676.6226     2285.232 
    7780    301.25555   -3127.8675   -2679.7727    2464.5475 
    7790    296.20886   -3121.5162    -2680.928    2651.7892 
    7800    292.43553   -3115.2482   -2680.2725    2819.5077 
    7810    290.23466   -3112.0243   -2680.3222    2925.5395 
    7820    289.49244   -3111.4382   -2680.8401    2973.3566 
    7830    289.72883   -3112.6432   -2681.6935    2978.1255 
    7840    290.60238   -3112.0306   -2679.7815    2983.9006 
    7850    291.90045   -3113.0093   -2678.8295    2955.8417 
    7860    293.68956   -3115.2613   -2678.4204    2896.0368 
    7870    295.91963   -3119.9162   -2679.7582    2795.6447 
    7880    298.28324   -3121.8274   -2678.1537    2719.0356 
    7890    300.51251   -3124.2029   -2677.2133      2636.58 
    7900    302.69933    -3127.422   -2677.1797    2546.6724 
    7910    304.80063   -3130.4161   -2677.0483    2466.3253 
    7920    306.21805   -3131.2338   -2675.7576    2429.2618 
    7930    306.35591   -3130.8362    -2675.155    2433.7499 
    7940    304.99477   -3127.7657   -2674.1091    2499.1565 
    7950    302.49426    -3124.601   -2674.6637    2587.7885 
    7960    299.73695   -3121.4754   -2675.6394    2682.5388 
    7970    297.83304   -3119.1436   -2676.1396    2757.4808 
    7980    297.77399   -3119.5513   -2676.6351    2775.3306 
    7990    299.49433    -3121.563   -2676.0879    2748.6545 
    8000    301.75263   -3122.4095   -2673.5753    2726.3295 
    8010    303.14098   -3124.3749   -2673.4757    2703.6461 
    8020    302.97362    -3123.986   -2673.3357    2728.5552 
    8030     301.4327   -3122.5189   -2674.1606    2785.0932 
    8040      299.404   -3119.5004   -2674.1597    2866.2037 
    8050    297.97288    -3116.572     -2673.36    2938.1207 
    8060    297.61153   -3113.8261   -2671.1515    2991.9318 
    8070    298.08577   -3114.7742   -2671.3942      2989.45 
    8080    298.57196   -3116.1313   -2672.0281     2975.941 
    8090    298.55614   -3115.6588   -2671.5791    2982.8934 
    8100    298.40134   -3115.5319   -2671.6825    2979.4996 
    8110    298.98471   -3116.0881    -2671.371    2947.5501 
    8120    300.83144   -3120.2236   -2672.7596     2847.789 
    8130    303.64296   -3122.4169   -2670.7711    2747.3163 
    8140    306.64446   -3124.2998   -2668.1894    2641.9519 
    8150    309.35751   -3127.4997   -2667.3539    2524.9578 
    8160    311.46174   -3130.0806   -2666.8049    2425.8931 
    8170    312.74527   -3131.8915   -2666.7066    2354.1552 
    8180    313.30115   -3132.3933   -2666.3816    2315.8893 
    8190    313.30119   -3132.0703   -2666.0585    2302.8384 
    8200    313.14888   -3132.2201   -2666.4349    2294.4736 
    8210    313.32484   -3131.9912   -2665.9443    2292.5164 
    8220    314.15124   -3134.4109   -2667.1347    2255.3646 
    8230    315.90396   -3137.0601   -2667.1769    2204.7297 
    8240     318.1745    -3138.907   -2665.6465    2155.7818 
    8250     319.9483   -3141.1916   -2665.2928    2108.1654 
    8260    320.27478   -3141.2908   -2664.9063    2103.1876 
    8270    319.07865   -3141.0867   -2666.4814    2120.5698 
    8280    317.13152   -3137.0602   -2665.3511    2190.3508 
    8290    315.25313   -3134.0417   -2665.1265    2245.4885 
    8300    314.27286    -3133.719   -2666.2619     2257.242 
    8310    314.56818   -3133.9318   -2666.0355    2245.1932 
    8320    315.97231    -3135.394   -2665.4091    2206.1009 
    8330    317.54776    -3137.596   -2665.2677     2161.789 
    8340    318.19414   -3138.3826   -2665.0929    2152.4214 
    8350    317.74121   -3137.4165   -2664.8005    2185.1567 
    8360      316.697   -3136.2441   -2665.1813    2234.5561 
    8370    315.66678   -3134.8302   -2665.2998    2291.7266 
    8380    314.95262   -3134.3414   -2665.8732    2337.5917 
    8390    314.46238   -3134.0003   -2666.2613    2379.3398 
    8400    313.83194   -3132.4345   -2665.6333    2436.1426 
    8410     312.7139    -3130.914   -2665.7758    2497.8335 
    8420    311.04423   -3128.9535   -2666.2988    2572.0117 
    8430    308.59202   -3125.7668   -2666.7595    2669.0243 
    8440    305.18061   -3120.2917   -2666.3587    2799.8687 
    8450    301.27584   -3115.4571   -2667.3322    2925.5708 
    8460    297.87413   -3109.5144   -2666.4492    3049.3407 
    8470    295.76578   -3107.0501   -2667.1209    3109.2063 
    8480    295.65848   -3107.5862   -2667.8167    3098.4266 
    8490    297.50988   -3109.6215    -2667.098    3036.7926 
    8500     300.6873   -3113.4736   -2666.2241    2933.4522 
    8510    304.43526   -3119.5834    -2666.759    2798.6435 
    8520    307.60453   -3124.2625   -2666.7241    2692.8098 
    8530    309.54778   -3127.6236   -2667.1947    2625.8067 
    8540     310.1625   -3127.0858   -2665.7426    2629.1211 
    8550    309.66708   -3127.5292   -2666.9229    2644.0883 
    8560    308.55346   -3126.9403   -2667.9904    2683.9947 
    8570    307.27359   -3123.2452    -2666.199    2761.3831 
    8580    306.18726   -3121.2276   -2665.7973    2812.2274 
    8590    305.93909   -3119.6154   -2664.5542    2836.8451 
    8600    307.12527   -3121.0092   -2664.1837    2796.4178 
    8610    309.60867   -3123.9114   -2663.3919    2711.5736 
    8620    312.43083   -3129.0455   -2664.3283    2591.5631 
    8630    314.14414   -3129.3834   -2662.1178    2538.0394 
    8640    314.23413   -3128.8606   -2661.4611    2520.2202 
    8650    313.53952   -3126.8335   -2660.4673    2536.2847 
    8660    313.38501   -3127.5928   -2661.4564    2522.5206 
    8670    313.94055   -3125.9531   -2658.9903    2535.1436 
    8680    314.31591   -3127.1139   -2659.5928     2525.405 
    8690    314.04149   -3127.3354   -2660.2225    2540.0385 
    8700    313.39295   -3126.1698   -2660.0215    2578.2776 
    8710     312.8441   -3124.3413   -2659.0094     2622.878 
    8720    312.33607   -3122.4311   -2657.8549    2665.6736 
    8730    311.67418   -3122.4299   -2658.8382     2686.598 
    8740    311.12199   -3120.8597   -2658.0893    2721.0914 
    8750    310.97742   -3121.2528   -2658.6974    2726.7529 
    8760    311.01201   -3121.3517   -2658.7449    2732.1163 
    8770    310.87933   -3121.3694   -2658.9599    2741.3149 
    8780    310.36495    -3121.825   -2660.1807    2750.9615 
    8790    309.55855   -3120.9902   -2660.5453    2780.1023 
    8800    308.50145   -3119.7071   -2660.8346    2819.9889 
    8810    306.93796   -3118.0431   -2661.4961     2872.205 
    8820    304.70948   -3114.6012   -2661.3689    2954.5478 
    8830    301.97029   -3111.2836   -2662.1257    3043.9746 
    8840    298.88916   -3106.4216   -2661.8467    3157.2219 
    8850    295.79266    -3103.555   -2663.5858    3246.4412 
    8860    293.08061   -3100.9383   -2665.0031    3327.4606 
    8870    291.66602   -3099.0516   -2665.2205    3377.5983 
    8880    292.42432   -3100.2098   -2665.2508    3357.9946 
    8890     295.0802   -3103.4705   -2664.5611    3280.6477 
    8900     298.4926   -3108.0645   -2664.0794    3174.4259 
    8910    301.80614   -3112.8202   -2663.9065    3064.7367 
    8920    304.58243   -3117.2086   -2664.1653    2966.8254 
    8930    306.87389   -3121.4875   -2665.0359    2876.1939 
    8940    309.21866   -3122.5376   -2662.5983    2819.7033 
    8950    312.14607   -3124.9618   -2660.6682    2738.1738 
    8960    316.03722   -3128.4339   -2658.3524     2629.715 
    8970    320.75406   -3134.6489   -2657.5515    2481.3681 
    8980     325.3449   -3139.2157   -2655.2898    2362.1323 
    8990    327.89661   -3142.7073   -2654.9859    2294.5963 
    9000    327.28083    -3141.622   -2654.8166    2334.9994 
    9010    323.67886   -3137.8884   -2656.4407    2456.2089 
    9020     318.3898    -3129.398   -2655.8173    2659.8008 
    9030    312.96545    -3122.411   -2656.8986    2847.6787 
    9040     308.9684   -3116.4981    -2656.931    2997.0847 
    9050    307.24326   -3113.3341    -2656.333    3073.8426 
    9060    307.74807   -3113.5476   -2655.7957    3070.1009 
    9070     309.6334   -3117.7645   -2657.2083    2994.5681 
    9080    311.68346   -3120.8666   -2657.2611    2927.6283 
    9090    312.68541   -3123.2892   -2658.1934    2886.0434 
    9100    311.80626   -3122.2805   -2658.4924    2915.5037 
    9110     308.8107   -3118.4468   -2659.1143    3014.3283 
    9120    304.46736   -3112.7439   -2659.8718    3159.4841 
    9130    300.40406   -3107.7043    -2660.876     3297.006 
    9140     298.1413    -3104.239   -2660.7764    3388.0966 
    9150    298.28213    -3104.663   -2660.9909    3393.9603 
    9160    300.34748   -3107.4128   -2660.6687    3336.3335 
    9170    303.11832   -3111.1384   -2660.2729    3247.2431 
    9180    305.58744   -3114.6735   -2660.1353    3160.4808 
    9190    306.99102   -3117.4997   -2660.8739    3094.8447 
    9200    306.89376   -3116.9592    -2660.478     3088.186 
    9210    305.76579   -3117.2082   -2662.4048     3089.087 
    9220    304.66312   -3115.7788   -2662.6155    3111.8483 
    9230    304.18713   -3115.2852   -2662.8299     3117.325 
    9240    304.14914   -3114.5641   -2662.1653    3118.5001 
    9250    304.10813   -3115.0226   -2662.6848    3104.9928 
    9260     303.7292    -3115.442   -2663.6679    3093.5674 
    9270    303.12689    -3115.052   -2664.1737    3089.5439 
    9280    303.23194   -3115.1737   -2664.1391    3064.8275 
    9290    305.14855    -3115.906   -2662.0207    3003.2405 
    9300    309.07891   -3119.0704   -2659.3389    2886.0705 
    9310    313.73534   -3123.7847   -2657.1271    2744.3493 
    9320    317.29789    -3127.317   -2655.3604    2637.4377 
    9330    318.40678   -3128.5708   -2654.9648    2599.2869 
    9340    316.80812   -3126.4414   -2655.2133    2648.2774 
    9350     313.4458   -3122.4951   -2656.2682    2753.1943 
    9360    309.35918   -3117.1789   -2657.0305    2891.3953 
    9370    305.28543    -3112.119     -2658.03    3028.5209 
    9380    301.95047   -3107.5278   -2658.3994    3149.1178 
    9390    300.15909   -3106.8127   -2660.3488    3196.9491 
    9400    301.05044   -3108.5062   -2660.7165    3168.7484 
    9410    304.13785    -3112.671    -2660.289    3071.7216 
    9420    308.33865   -3117.9296   -2659.2992      2941.68 
    9430    312.43673   -3124.7218   -2659.9958    2795.5853 
    9440    315.26936   -3127.1066   -2658.1674    2720.3319 
    9450    315.56659   -3127.9026   -2658.5212    2702.1142 
    9460    313.12876     -3125.02   -2659.2647    2765.2615 
    9470     309.2244   -3120.5247   -2660.5769    2867.0657 
    9480    305.83028   -3114.9163   -2660.0169    2972.5877 
    9490    304.72609   -3112.3665   -2659.1095     3006.257 
    9500     306.3152   -3112.3561   -2656.7354     2967.837 
    9510    309.31099   -3117.0239   -2656.9473    2854.1713 
    9520    311.74711   -3119.1297   -2655.4294    2775.0873 
    9530    312.70116    -3120.793   -2655.6737    2722.5871 
    9540    312.53821   -3121.3057   -2656.4288    2700.7058 
    9550     311.9452   -3119.9598   -2655.9649    2706.5294 
    9560    311.57144   -3120.0779    -2656.639    2692.2782 
    9570    312.18371   -3122.6376    -2658.288    2636.0107 
    9580    314.31852   -3124.7465   -2657.2215     2564.782 
    9590    317.62813   -3129.6334   -2657.1857     2447.166 
    9600    321.19319   -3133.7968   -2656.0463    2338.3225 
    9610     324.1183   -3136.8624    -2654.761    2257.3259 
    9620    325.61378   -3139.2171   -2654.8913    2212.5563 
    9630    325.47076   -3138.3654   -2654.2523    2234.2545 
    9640     324.2105   -3138.3736    -2656.135    2270.3439 
    9650    322.32368   -3135.7702   -2656.3381    2349.8198 
    9660    320.00327   -3134.0867   -2658.1061    2427.2813 
    9670    317.32715   -3130.1035   -2658.1034    2534.5188 
    9680    314.37087   -3125.2383   -2657.6354     2651.763 
    9690    311.70237   -3121.2441   -2657.6104    2748.9126 
    9700     309.8679   -3119.3399   -2658.4349    2803.7839 
    9710    309.21855   -3120.2624   -2660.3233    2801.3523 
    9720    309.67029   -3120.4836   -2659.8725    2781.1058 
    9730    311.05629   -3121.6324   -2658.9598    2728.9309 
    9740    313.20946   -3124.4036   -2658.5283    2643.9809 
    9750    315.15038   -3126.7633    -2658.001    2567.2241 
    9760    315.23045   -3127.5878   -2658.7064    2536.9738 
    9770    312.70292   -3125.4231   -2660.3012    2583.0339 
    9780    308.13631   -3121.4527   -2663.1233    2686.6967 
    9790    302.79975   -3116.0458   -2665.6541    2827.6214 
    9800    298.12385   -3110.1248   -2666.6882    2974.2847 
    9810    294.69401   -3105.5126   -2667.1776    3095.7416 
    9820    292.36541    -3103.493   -2668.6216    3173.3323 
    9830    290.40732   -3099.5822   -2667.6233    3265.5541 
    9840    289.21324   -3100.6202   -2670.4374    3285.0582 
    9850    289.76049   -3102.2195   -2671.2227    3263.1546 
    9860    292.37857   -3104.7088   -2669.8178    3192.0625 
    9870    297.04538   -3110.3305    -2668.498    3049.8073 
    9880    302.13027   -3115.7856   -2666.3897    2900.0004 
    9890    305.95318   -3122.3295   -2667.2473    2756.0929 
    9900    307.77418   -3126.5574   -2668.7667    2667.7739 
    9910    308.19481   -3128.9006   -2670.4841    2623.4256 
    9920    307.86656   -3128.3413   -2670.4131    2626.4091 
    9930    307.07734   -3127.8656   -2671.1113    2636.9228 
    9940    306.29413   -3125.1698   -2669.5805     2671.227 
    9950    306.26827   -3125.2642   -2669.7133    2660.5137 
    9960    307.41561   -3125.3838   -2668.1263    2629.8502 
    9970    309.00065    -3128.557    -2668.942    2554.1928 
    9980    310.10844   -3129.9663   -2668.7034    2499.6888 
    9990    311.02005   -3131.1358   -2668.5171    2445.8601 
   10000    312.99227   -3134.4049   -2668.8526    2349.8058 
   10010    316.62546   -3138.4169   -2667.4606    2220.7728 
   10020    321.12887   -3146.4153   -2668.7604    2036.9464 
   10030    325.28269   -3151.8879   -2668.0546    1891.9966 
   10040    328.18105   -3155.6832   -2667.5388    1793.7182 
   10050    329.34967   -3156.4275   -2666.5448    1767.7485 
   10060    328.56455   -3156.0754   -2667.3605    1795.0247 
   10070    325.85886   -3152.0376   -2667.3473    1901.3832 
   10080     321.4799   -3146.0602   -2667.8832    2059.3034 
   10090    315.99998    -3138.723   -2668.6969    2247.8763 
   10100    310.57332   -3133.0259   -2671.0716    2411.1867 
   10110    306.62544   -3128.3203   -2672.2382    2532.8334 
   10120    304.88134   -3124.8129    -2671.325    2596.6962 
   10130    304.99176   -3124.1573   -2670.5052    2589.2947 
   10140    305.80705   -3126.8837   -2672.0189     2524.219 
   10150    306.59719   -3127.3445   -2671.3044    2480.9314 
   10160    307.13255   -3129.6028   -2672.7664    2425.3538 
   10170    307.17102   -3130.3203   -2673.4267    2403.9926 
   10180    306.33303   -3128.3588   -2672.7116    2438.0054 
   10190    304.41638   -3126.3706   -2673.5743     2498.843 
   10200     301.8282   -3124.1992   -2675.2526     2579.923 
   10210     299.0888   -3122.2044   -2677.3325    2667.2014 
   10220    296.60951   -3119.0724   -2677.8882    2765.1417 
   10230    294.66629   -3115.9541   -2677.6603    2852.2673 
   10240    293.35684   -3115.6071    -2679.261    2892.6807 
   10250    292.87044   -3115.6582   -2680.0356    2905.8797 
   10260    293.45702   -3116.4213   -2679.9263    2883.3219 
   10270    295.03713   -3119.2362   -2680.3909    2812.9681 
   10280    296.90821    -3121.629   -2680.0005    2733.4663 
   10290    298.18012   -3124.2986   -2680.7783    2653.4321 
   10300    298.33032   -3124.2332   -2680.4894    2616.7068 
   10310    297.29506   -3124.5193   -2682.3154    2591.9712 
   10320    295.85044   -3123.6308   -2683.5757    2586.6321 
   10330    295.30589   -3123.4759   -2684.2308      2561.44 
   10340    296.86985   -3125.4436   -2683.8722    2485.7545 
   10350    300.75242   -3129.3926   -2682.0462      2357.59 
   10360    306.13664   -3135.3394   -2679.9843    2191.4163 
   10370    311.81492   -3143.4507   -2679.6496     2006.366 
   10380    316.13927   -3148.3162    -2678.083    1887.1116 
   10390    317.91451    -3150.021   -2677.1473    1851.1785 
   10400    316.77134   -3149.9556   -2678.7822    1887.1975 
   10410    313.36146   -3147.0781   -2680.9767    1994.9678 
   10420     309.0313   -3141.8689   -2682.2083    2147.1007 
   10430    304.90143   -3137.1712   -2683.6535    2290.4821 
   10440    301.25747   -3132.1433   -2684.0457    2423.5423 
   10450    297.99861   -3126.8876   -2683.6373    2541.5995 
   10460    295.78359   -3125.9746   -2686.0189     2579.814 
   10470    295.90706    -3125.875   -2685.7356    2557.4242 
   10480    298.75621   -3129.8561   -2685.4789    2434.3066 
   10490    303.22181   -3137.4051   -2686.3856     2237.001 
   10500     307.8216   -3142.5929   -2684.7316    2057.1353 
   10510    311.68486   -3148.5865   -2684.9789    1880.6176 
   10520    314.33185   -3153.0764   -2685.5316    1746.7578 
   10530    315.42093   -3155.8934   -2686.7286    1668.2148 
   10540    314.78275   -3155.6546   -2687.4391    1663.2405 
   10550    312.61185   -3152.8571   -2687.8707    1720.7879 
   10560    309.52854   -3149.4503     -2689.05    1805.5975 
   10570    306.63678   -3145.6187   -2689.5197    1897.6198 
   10580    304.71142   -3143.1131   -2689.8779    1963.6891 
   10590    303.70113   -3143.0547   -2691.3223    1989.9282 
   10600    302.90746   -3143.7858   -2693.2339    2003.7433 
   10610    301.77987   -3144.0982   -2695.2236    2026.4525 
   10620     300.2071   -3141.7521   -2695.2167    2085.9038 
   10630    298.06305   -3140.6621   -2697.3159    2141.2147 
   10640    295.15975   -3137.7031   -2698.6754     2229.521 
   10650    291.70954    -3134.187   -2700.2911     2331.244 
   10660    288.53314   -3129.9189   -2700.7477    2435.0881 
   10670    286.47216   -3127.5546    -2701.449    2497.1767 
   10680    286.20186   -3126.2458   -2700.5422    2513.3203 
   10690    287.65437   -3129.0617   -2701.1976    2447.2481 
   10700    290.18324   -3130.8781   -2699.2526    2363.9643 
   10710    293.62655   -3136.5443    -2699.797    2215.1146 
   10720    298.03385   -3140.3614   -2697.0586    2066.3917 
   10730    302.84555   -3148.3688    -2697.909    1863.3816 
   10740    306.76647   -3152.7715   -2696.4796    1715.1997 
   10750    308.45889   -3155.0705   -2696.2612    1629.2305 
   10760    307.35441    -3152.715   -2695.5486    1646.2902 
   10770     303.9475   -3150.2653   -2698.1664    1707.4834 
   10780    299.70458   -3145.1899    -2699.402    1816.5912 
   10790    296.20565   -3141.2942   -2700.7108    1904.8218 
   10800    294.25079    -3139.045   -2701.3692    1954.0536 
   10810     293.3624   -3138.9007   -2702.5464    1963.7909 
   10820    292.71892   -3139.4479   -2704.0507    1961.3686 
   10830     292.0207   -3138.9996    -2704.641    1970.9285 
   10840    291.51962   -3138.1334     -2704.52    1984.1762 
   10850    291.40255    -3137.473   -2704.0338    1992.5325 
   10860    291.48664   -3137.4523   -2703.8881    1991.7088 
   10870     291.7209   -3139.4529   -2705.5401    1964.4481 
   10880    292.57976   -3142.0901   -2706.8999     1919.908 
   10890    294.42741   -3143.0603   -2705.1218    1877.0844 
   10900    297.12274   -3145.8688   -2703.9213    1800.5597 
   10910     299.8325   -3148.9579   -2702.9797    1722.3979 
   10920    301.65014   -3151.5938   -2702.9121    1667.5973 
   10930    301.99309   -3152.4015   -2703.2097    1663.3392 
   10940    300.66424   -3151.1341   -2703.9188    1714.3996 
   10950    298.17079   -3147.3671   -2703.8606     1818.886 
   10960    295.12792   -3143.8311   -2704.8507    1935.0807 
   10970    291.94328   -3139.8503   -2705.6068    2059.9603 
   10980    288.92649   -3137.2527   -2707.4965    2163.7566 
   10990    286.49023   -3135.1048   -2708.9723     2247.491 
   11000    284.95413   -3134.1985   -2710.3508    2296.4858 
   11010    284.29198   -3134.2382   -2711.3755    2315.0681 
   11020    284.11378   -3133.4229   -2710.8251    2327.3229 
   11030    284.31522   -3134.7839   -2711.8866    2300.5699 
   11040     285.4065   -3134.4804   -2709.9599    2273.0207 
   11050    287.68033   -3137.4822   -2709.5795     2187.947 
   11060    290.53591   -3142.3829   -2710.2327    2072.6882 
   11070    292.78269   -3145.6086   -2710.1166    1986.3465 
   11080    293.57675   -3146.1095   -2709.4363    1955.1016 
   11090    292.87306    -3145.666   -2710.0396    1961.2945 
   11100    291.26609   -3143.5745   -2710.3383    2004.7291 
   11110    289.32292   -3141.7208   -2711.3749    2053.8866 
   11120    287.34652   -3138.2412    -2710.835    2121.9988 
   11130    285.82415   -3137.2893   -2712.1476     2151.826 
   11140    285.74694    -3137.733   -2712.7061    2138.9361 
   11150    287.78179   -3139.2104   -2711.1568    2074.7482 
   11160    291.70947   -3143.0335   -2709.1378    1945.9483 
   11170    296.88171   -3149.1921   -2707.6031    1763.7635 
   11180     302.5328   -3155.9388   -2705.9441    1562.9554 
   11190     307.7516   -3162.8082    -2705.051    1368.0342 
   11200    311.70614   -3167.3255   -2703.6862    1225.8833 
   11210    313.70658   -3168.7637   -2702.1489    1159.6457 
   11220    313.16016   -3167.0497   -2701.2477    1179.3425 
   11230    310.12168   -3163.5618   -2702.2793    1266.5499 
   11240     305.7123   -3158.7686   -2704.0447    1395.9582 
   11250    301.51179   -3154.3632   -2705.8872    1522.2025 
   11260    298.32837   -3150.9535   -2707.2127    1619.9338 
   11270    296.47893    -3149.983   -2708.9931    1663.5882 
   11280    296.18046   -3150.4066   -2709.8607    1661.4327 
   11290    297.09314   -3151.1482   -2709.2447    1633.0562 
   11300    298.37751   -3152.8739   -2709.0599    1585.9666 
   11310    299.37208   -3155.2923    -2709.999    1538.5801 
   11320    299.39175   -3154.3968   -2709.0742    1549.2436 
   11330    297.84969   -3154.9829   -2711.9541    1574.9836 
   11340     294.7582   -3151.2759   -2712.8454    1679.3518 
   11350    290.80259    -3146.494   -2713.9472      1814.07 
   11360    286.83501   -3141.4278   -2714.7824     1952.292 
   11370    283.77937   -3138.6755   -2716.5752    2046.1077 
   11380    282.54256   -3136.8541   -2716.5934    2094.1754 
   11390    283.69465   -3138.6481   -2716.6738    2058.3537 
   11400     286.8329   -3141.9808   -2715.3386    1970.0203 
   11410    290.46138   -3146.4476   -2714.4083    1857.5461 
   11420    292.99131   -3150.0744   -2714.2721    1770.9416 
   11430    293.40067    -3150.677   -2714.2657    1753.6737 
   11440    291.46341   -3150.2073   -2716.6776    1788.5332 
   11450    287.97699    -3146.103    -2717.759    1892.0446 
   11460    284.53731   -3140.6061   -2717.3784    2015.8256 
   11470    282.59571    -3138.274   -2717.9343    2088.5113 
   11480    282.19103   -3137.9774   -2718.2396    2119.2786 
   11490    282.39454   -3138.5607   -2718.5202     2132.151 
   11500    282.41201   -3136.4098   -2716.3433    2176.2557 
   11510    282.24463    -3138.497   -2718.6795    2172.4723 
   11520    282.42214   -3136.9311   -2716.8495    2197.0302 
   11530    283.68172   -3138.0191    -2716.064    2166.4981 
   11540    286.43039   -3140.8162   -2714.7727    2084.4432 
   11550    290.33652   -3146.8901   -2715.0365    1939.8407 
   11560    294.34033   -3150.3189   -2712.5099    1816.9969 
   11570    297.28778   -3153.7507   -2711.5577    1706.6668 
   11580     298.4931   -3154.6286   -2710.6428    1650.8394 
   11590    297.92869   -3154.3609   -2711.2146    1637.7756 
   11600    296.18754   -3152.5047   -2711.9482    1665.7703 
   11610    294.24183   -3150.2625   -2712.6001    1707.2674 
   11620     292.8978   -3148.2363    -2712.573     1743.723 
   11630    292.28274   -3147.3768   -2712.6284    1759.6523 
   11640    292.28973   -3147.9416   -2713.1828    1750.9534 
   11650    292.78407   -3147.6648   -2712.1707    1741.7346 
   11660    293.56999   -3148.5361    -2711.873    1709.5562 
   11670    294.64133   -3150.0231   -2711.7664     1661.114 
   11680    295.90622   -3153.4571    -2713.319    1583.7612 
   11690    297.14083   -3155.2759   -2713.3014    1522.0205 
   11700    298.04662   -3156.2899   -2712.9682    1474.3926 
   11710    298.27254   -3156.4615   -2712.8037    1450.0137 
   11720    297.49444   -3155.6525   -2713.1521    1457.3836 
   11730    295.77292   -3152.3566   -2712.4168    1515.0634 
   11740    293.55882     -3151.08   -2714.4335     1568.166 
   11750    291.33263   -3148.0774   -2714.7422    1652.0325 
   11760    289.04891    -3145.128   -2715.1897    1744.3844 
   11770    286.34599    -3142.054    -2716.136    1848.7186 
   11780    283.05854   -3139.6996   -2718.6715    1953.0885 
   11790    279.70604   -3135.0208   -2718.9793    2078.9287 
   11800    277.50517   -3131.2321   -2718.4641    2171.1783 
   11810    277.27789   -3132.2566   -2719.8267    2173.7886 
   11820    278.93312     -3133.39   -2718.4981    2139.4478 
   11830     281.5063   -3137.6203    -2718.901     2049.712 
   11840    283.90318   -3140.3111   -2718.0266    1973.8695 
   11850    285.74069   -3141.7781   -2716.7605    1917.8727 
   11860    287.16347   -3143.5155   -2716.3816    1866.6513 
   11870    288.29663   -3143.3126   -2714.4932    1844.9654 
   11880    288.99094   -3144.4055   -2714.5534    1821.3617 
   11890    288.74362   -3143.9339   -2714.4497    1833.9499 
   11900    287.35467   -3142.9658   -2715.5476    1872.2289 
   11910    285.33041   -3140.5493    -2716.142    1938.4285 
   11920    283.49154   -3138.4893   -2716.8171    1996.4059 
   11930    282.68608   -3138.3638   -2717.8897    2013.8902 
   11940    283.34871   -3138.8718   -2717.4121    1997.6985 
   11950    285.30641   -3141.7708   -2717.3991    1928.8066 
   11960    288.08004    -3144.757   -2716.2598      1840.43 
   11970    291.07336   -3148.4091   -2715.4595    1736.7318 
   11980    293.84792   -3152.9664   -2715.8899    1626.2169 
   11990    295.81318   -3154.6807    -2714.681    1560.4748 
   12000    296.58249   -3154.1201   -2712.9761    1540.6884 
   12010    296.36208   -3153.2529   -2712.4367    1543.5003 
   12020    296.11045   -3152.4765   -2712.0346    1551.5565 
   12030    296.97623   -3152.8242   -2711.0946    1537.8803 
   12040    299.22915   -3155.2817    -2710.201    1488.3896 
   12050    301.79425   -3157.9957   -2709.0997    1437.0621 
   12060     303.2898     -3160.04   -2708.9194    1412.7033 
   12070    303.13307   -3160.5634   -2709.6759    1430.6268 
   12080    301.79709    -3159.099   -2710.1987    1486.5005 
   12090    300.15021    -3156.463   -2710.0123    1559.6688 
   12100    298.59509   -3155.2549   -2711.1173    1613.6661 
   12110    297.40905   -3152.9239   -2710.5505    1673.6168 
   12120    296.77825   -3151.9413   -2710.5061    1709.3857 
   12130     296.8847   -3152.9241   -2711.3306    1712.9057 
   12140    297.63035   -3154.4336    -2711.731    1702.0428 
   12150    298.52104   -3154.9387   -2710.9113    1699.4675 
   12160    298.92107   -3155.7559   -2711.1334    1698.4515 
   12170    298.32632    -3154.945   -2711.2072    1727.1608 
   12180    296.43425   -3152.5265    -2711.603    1787.7464 
   12190    293.38585   -3147.6218   -2711.2326    1886.9689 
   12200    289.91853   -3143.9002   -2712.6683    1972.1069 
   12210    287.40794   -3142.0249   -2714.5274    2014.9793 
   12220    287.09886   -3141.6943   -2714.6565    2001.8941 
   12230    289.14142   -3145.9867   -2715.9107    1898.0006 
   12240     292.7568   -3151.7007   -2716.2472     1756.012 
   12250    296.52332   -3155.4921   -2714.4361     1637.835 
   12260    299.07043   -3157.7681   -2712.9235    1564.0401 
   12270    299.38771   -3157.2807   -2711.9642    1565.7312 
   12280    297.16598   -3153.1194   -2711.1075    1656.8166 
   12290    293.04394   -3147.1272   -2711.2466    1803.6903 
   12300      288.567   -3141.4786   -2712.2571    1953.8951 
   12310    285.63751   -3135.9102    -2711.046    2077.8325 
   12320    285.12844   -3134.9179   -2710.8109    2107.9534 
   12330     286.5661   -3137.1257   -2710.8803    2064.0886 
   12340    289.07415   -3140.9183   -2710.9424    1977.4658 
   12350     292.0863   -3144.6725   -2710.2163    1879.0151 
   12360    294.98224   -3147.2322   -2708.4685    1795.2133 
   12370    297.12197   -3151.0838   -2709.1374    1711.3963 
   12380     297.9674   -3152.2771   -2709.0732    1681.5559 
   12390    297.14421   -3151.0068   -2709.0273    1708.3905 
   12400    294.85727   -3149.1054   -2710.5276    1767.0395 
   12410    292.02654   -3144.2883   -2709.9209    1866.8614 
   12420    289.90592   -3142.9861    -2711.773    1916.0923 
   12430    289.25399     -3141.79   -2711.5466    1941.0453 
   12440    289.86546   -3144.2631   -2713.1102    1906.0185 
   12450    290.88124   -3144.8693   -2712.2055    1884.6435 
   12460    291.56815   -3144.9329   -2711.2474    1874.3061 
   12470    291.37772    -3144.564   -2711.1617    1881.7406 
   12480    290.26789   -3142.7861   -2711.0347    1916.6677 
   12490    289.10742   -3140.8124    -2710.787    1950.6477 
   12500    289.18017   -3140.8891   -2710.7555    1939.3325 
   12510    291.12502   -3142.7596   -2709.7332    1877.0473 
   12520    294.57392   -3145.3098   -2707.1534    1784.3878 
   12530    298.36104   -3150.9057   -2707.1163    1652.6145 
   12540    301.46207   -3154.0678   -2705.6658    1559.6825 
   12550    303.35086   -3158.2249   -2707.0135    1478.1843 
   12560     303.8876   -3159.1258    -2707.116    1458.9538 
   12570    303.21632   -3159.5827   -2708.5714    1468.7172 
   12580    301.80706   -3157.2833   -2708.3682    1526.5201 
   12590    300.18186   -3155.2425   -2708.7447    1589.5116 
   12600    298.54844   -3153.1945   -2709.1263    1655.7742 
   12610     296.4447   -3149.3774   -2708.4384    1750.0522 
   12620    293.19949   -3144.5376   -2708.4255    1870.1474 
   12630    289.36857   -3139.3666   -2708.9528    1999.8003 
   12640    286.63541   -3136.4752   -2710.1267    2084.1833 
[...]
   96980    309.90032   -3112.2655   -2651.3123    3134.6053 
   96990    310.66054   -3112.5883   -2650.5043    3096.7524 
   97000    312.70721   -3115.0808   -2649.9526    3020.9786 
   97010    315.74999    -3118.708   -2649.0539    2925.6954 
   97020    318.42956    -3122.778   -2649.1382    2837.8103 
   97030    319.57046   -3123.3086   -2647.9717    2819.8066 
   97040    318.85801   -3123.4745   -2649.1973    2840.2959 
   97050    316.97944   -3119.5247   -2648.0418    2931.7086 
   97060     314.7946    -3116.888   -2648.6549    3019.3023 
   97070    312.99889   -3114.3516   -2648.7894    3104.7639 
   97080     311.7872   -3113.0952   -2649.3354    3167.1083 
   97090    310.98879   -3112.3573    -2649.785    3213.9883 
   97100    310.54395   -3110.6259   -2648.7153    3261.1895 
   97110    310.80731   -3111.1282   -2648.8259    3267.8887 
   97120    312.21746   -3112.9728    -2648.573    3238.0977 
   97130    314.11825   -3115.0335   -2647.8064    3193.2629 
   97140    315.10398   -3115.1453    -2646.452    3178.3554 
   97150    314.66396   -3114.7513   -2646.7125     3187.385 
   97160    313.46174   -3113.5179   -2647.2673    3216.2039 
   97170    312.67127   -3112.2816   -2647.2068    3240.0555 
   97180     312.9011   -3112.0935   -2646.6768    3237.3892 
   97190    313.98735   -3113.0081   -2645.9757    3210.2016 
   97200    315.41544   -3114.7463   -2645.5897    3170.3803 
   97210    316.34464   -3115.9833   -2645.4446    3145.0237 
   97220    316.23351   -3118.2625   -2647.8891     3127.564 
   97230    315.08445    -3116.587   -2647.9228    3173.6884 
   97240    312.97597   -3112.7643   -2647.2363     3260.932 
   97250    310.08454   -3107.8702   -2646.6429    3375.3467 
   97260    306.71845   -3103.5815    -2647.361    3490.0129 
   97270    303.37031   -3098.6016   -2647.3612    3612.7806 
   97280    300.16658   -3095.0165   -2648.5415    3719.4786 
   97290    297.05763   -3091.9872   -2650.1365    3816.1445 
   97300    294.64309   -3090.3788   -2652.1196    3886.1597 
   97310    293.87967    -3088.499   -2651.3752    3931.3887 
   97320    295.08042   -3090.9461   -2652.0363    3896.2793 
   97330    296.79838   -3093.6969   -2652.2318    3846.0108 
   97340    298.14557   -3095.4014   -2651.9324    3807.6342 
   97350    299.18856   -3096.9855   -2651.9652    3771.5024 
   97360    300.44904    -3099.131   -2652.2359    3724.9605 
   97370    302.39627   -3100.9134   -2651.1218    3670.5381 
   97380    304.72618   -3102.0629   -2648.8058    3612.5289 
   97390    306.73103    -3105.279   -2649.0398    3534.4853 
   97400    308.83086   -3108.6799   -2649.3174    3452.0046 
   97410    311.18869   -3111.5412   -2648.6716    3372.3821 
   97420    313.77132   -3112.4277   -2645.7166    3316.4636 
   97430    315.81727   -3115.6216   -2645.8674     3249.464 
   97440    316.09957   -3116.1694   -2645.9953    3244.1755 
   97450    314.04889     -3112.82   -2645.6961    3321.6897 
   97460    310.44515   -3108.5854   -2646.8218    3438.3749 
   97470    306.65543   -3104.6883   -2648.5615    3556.4501 
   97480    304.06441   -3100.4341   -2648.1613    3660.2437 
   97490    303.40889   -3099.6619   -2648.3642    3688.5906 
   97500     305.2053   -3102.5979   -2648.6282    3630.8467 
   97510      308.527   -3106.8337   -2647.9232    3531.6428 
   97520    312.27755    -3110.225   -2645.7358    3430.6761 
   97530    315.24796   -3113.6269   -2644.7195    3340.6709 
   97540    317.45243   -3117.8278   -2645.6413    3255.5169 
   97550    318.95971   -3118.2437   -2643.8153    3223.9883 
   97560    319.79133    -3119.905   -2644.2396    3188.9432 
   97570    319.90181   -3120.7853   -2644.9556    3171.7966 
   97580    319.49286   -3121.9336   -2646.7122    3156.9387 
   97590    319.09336   -3120.2041   -2645.5769    3168.9889 
   97600    319.39508   -3118.7135   -2643.6375    3164.1646 
   97610    320.22976   -3117.2523   -2640.9348    3149.1851 
   97620    320.37903   -3118.7339   -2642.1944    3110.2649 
   97630    318.94157   -3116.3529   -2641.9515    3136.9046 
   97640    316.43535   -3111.1531   -2640.4795    3212.3275 
   97650    314.29504   -3108.7341   -2641.2441    3257.1248 
   97660    313.72251   -3107.3241   -2640.6857    3272.6115 
   97670    315.15754   -3109.7248   -2640.9519    3221.8461 
   97680    317.67702   -3114.8189   -2642.2984    3132.7711 
   97690    319.65293    -3117.483   -2642.0235    3083.3187 
   97700    319.43519   -3118.2695   -2643.1339    3090.3006 
   97710    316.70251   -3115.5839   -2644.5129    3174.7378 
   97720    312.85886   -3112.1375   -2646.7836    3287.1394 
   97730    309.71479   -3107.0234   -2646.3461    3412.3054 
   97740    307.92095   -3102.9006   -2644.8916    3507.6875 
   97750    306.57571   -3101.0188   -2645.0107    3574.3486 
   97760     304.6825   -3098.4618   -2645.2697    3655.2611 
   97770    301.94387   -3095.0732   -2645.9545    3759.7392 
   97780    298.90729   -3090.4024   -2645.8004    3879.6966 
   97790      296.664   -3088.7636   -2647.4984    3948.3318 
   97800    296.16018   -3088.7877   -2648.2719    3964.2634 
   97810    297.56286   -3090.9639   -2648.3617    3921.1573 
   97820    299.98123    -3093.697   -2647.4977    3853.1439 
   97830    302.16539   -3096.3839   -2646.9358    3784.7585 
   97840    302.83135    -3097.845   -2647.4063    3750.2094 
   97850    302.34366   -3097.0929   -2647.3797    3755.4001 
   97860    302.45218   -3096.3575   -2646.4828    3746.3722 
   97870    304.65378   -3097.6687   -2644.5193    3676.8403 
   97880    309.04966   -3103.3649   -2643.6769     3520.272 
   97890    314.81222   -3109.9921   -2641.7328    3329.3776 
   97900     320.5009   -3114.4599   -2637.7391    3165.9161 
   97910    324.89482   -3120.9079   -2637.6514    3006.1843 
   97920    327.01132   -3122.8669   -2636.4623    2939.6076 
   97930    326.68407   -3123.3169   -2637.3991    2936.9971 
   97940    324.60057   -3121.4152   -2638.5964    2995.3369 
   97950    322.04927    -3118.653   -2639.6292    3076.5356 
   97960    320.15213   -3116.3271   -2640.1251    3146.2485 
   97970    319.03262   -3116.5727   -2642.0358    3173.7023 
   97980    318.36363   -3114.6423   -2641.1005    3214.0852 
   97990    317.88676   -3114.8054    -2641.973    3220.3204 
   98000     317.8601   -3115.4145   -2642.6217    3208.2513 
   98010    318.38548   -3117.1346   -2643.5603    3172.3304 
   98020    319.01135   -3120.8245   -2646.3193    3112.8983 
   98030    318.91344   -3120.1826    -2645.823    3111.7764 
   98040    317.86785   -3118.3412   -2645.5369    3138.9604 
   98050    316.46001   -3116.2963    -2645.586    3175.9277 
   98060    315.38246   -3115.0746   -2645.9671    3202.1893 
   98070    314.73178   -3115.0604   -2646.9207    3210.9278 
   98080    313.92435   -3114.5914   -2647.6527    3224.2654 
   98090    312.96788   -3114.2013   -2648.6853    3232.6664 
   98100    312.87957   -3114.6604   -2649.2758    3209.2863 
   98110     314.8286   -3116.1539   -2647.8702    3134.6274 
   98120    318.86815   -3121.6198   -2647.3276    2975.8857 
   98130    324.44211   -3129.7453   -2647.1622      2758.66 
   98140    330.74629   -3137.2844   -2645.3244    2537.3109 
   98150    336.34461   -3143.6577   -2643.3706    2346.2438 
   98160    339.06205   -3146.8744   -2642.5453    2242.1593 
   98170    337.56033   -3144.3391   -2642.2437    2276.5535 
   98180    332.24193   -3136.1639   -2641.9792    2440.9413 
   98190    325.42634   -3128.5721   -2644.5251    2631.7078 
   98200    319.81431     -3121.93   -2646.2305    2802.7208 
   98210    316.79139   -3119.4247   -2648.2215    2895.6482 
   98220     315.4455   -3118.6562   -2649.4549    2944.2788 
   98230    314.25468   -3117.2978   -2649.8678     2994.532 
   98240    312.60117   -3117.0624   -2652.0918    3036.3282 
   98250    310.98455    -3113.721   -2651.1551    3110.4505 
   98260    310.12147   -3112.2666   -2650.9844    3153.0853 
   98270     309.9219   -3112.7189   -2651.7335    3167.2835 
   98280     309.6845   -3112.2054   -2651.5731    3197.7199 
   98290    308.38844   -3112.1771   -2653.4727    3244.7311 
   98300    305.37736   -3109.2242   -2654.9985    3357.2373 
   98310    300.91278   -3104.1778   -2656.5928    3517.0697 
   98320     296.6446   -3099.9593   -2658.7229    3664.1559 
   98330    294.02807   -3095.8634    -2658.519    3780.8499 
   98340    293.30525   -3095.7467   -2659.4774    3816.3097 
   98350    294.41968   -3095.1929   -2657.2659    3817.7422 
   98360    296.64224    -3096.679   -2655.4462     3767.297 
   98370    299.12556   -3099.7652   -2654.8386    3686.3152 
   98380    301.57759   -3103.8201   -2655.2463    3585.1352 
   98390    303.11946   -3105.5068   -2654.6395    3516.6459 
   98400    303.76879   -3106.5383   -2654.7052    3461.2594 
   98410    303.80544   -3107.5804   -2655.6928    3408.7655 
   98420    303.47655   -3107.7584     -2656.36    3366.4224 
   98430    303.44539    -3106.874    -2655.522    3329.1607 
   98440    304.41135   -3109.3934   -2656.6046    3237.3532 
   98450    306.62065   -3112.2295   -2656.1545    3125.2764 
   98460      309.953   -3116.3196    -2655.288     2987.883 
   98470    313.38142   -3120.7839   -2654.6527     2851.494 
   98480    316.10131   -3124.5828    -2654.406    2743.0143 
   98490    317.92988   -3126.9737   -2654.0771    2676.3535 
   98500    318.73961   -3127.1756   -2653.0746    2664.3732 
   98510    318.15081   -3127.2111   -2653.9859    2689.6978 
   98520    315.92088   -3124.1473   -2654.2389    2782.9813 
   98530    312.58813   -3119.9196   -2654.9685     2909.996 
   98540    309.14573   -3116.9771   -2657.1463    3023.7533 
   98550    306.50961   -3114.2635   -2658.3537    3116.5837 
   98560    305.44974   -3113.4333      -2659.1    3154.3002 
   98570    306.21672   -3115.1975   -2659.7233    3124.2118 
   98580    307.90329   -3117.8818    -2659.899    3058.9635 
   98590    309.07655   -3120.0369    -2660.309    2998.2158 
   98600    308.84813   -3121.7237   -2662.3355    2956.1261 
   98610    307.63134   -3122.8136   -2665.2353    2929.3252 
   98620     307.0456   -3123.2601   -2666.5531    2898.4033 
   98630     308.3468   -3125.2926   -2666.6501    2824.2714 
   98640     311.0515   -3129.6031   -2666.9376    2708.2726 
   98650    313.30321   -3132.5695   -2666.5547    2619.0544 
   98660    313.88814   -3133.0449   -2666.1601    2588.9454 
   98670    312.73469   -3131.6233   -2666.4541    2612.4234 
   98680     310.8331    -3128.851   -2666.5103     2669.673 
   98690    309.62155   -3126.1663   -2665.6277    2723.5686 
   98700    309.93176   -3126.8324   -2665.8324    2722.8766 
   98710    311.33759   -3129.4078   -2666.3167    2687.5003 
   98720     312.6369   -3130.9416   -2665.9179    2665.1449 
   98730    313.02067    -3132.633   -2667.0385    2653.3982 
   98740    312.45026   -3132.3425   -2667.5964    2677.0328 
   98750    311.39146   -3130.6469   -2667.4757    2723.0083 
   98760    310.51374   -3130.7554   -2668.8897    2745.2431 
   98770    310.35611   -3130.7167   -2669.0855    2756.9054 
   98780    310.83114   -3131.8664   -2669.5286    2743.6567 
   98790    311.36755   -3132.5615   -2669.4258    2731.0021 
   98800    311.26221   -3132.9828   -2670.0039    2726.0447 
   98810    310.25239   -3133.2002   -2671.7233    2731.1359 
   98820    308.64799   -3132.2781   -2673.1876    2752.2795 
   98830    306.94479   -3130.6879   -2674.1308    2777.0039 
   98840    305.57197   -3129.3708   -2674.8557    2790.7389 
   98850    304.88818   -3129.3172   -2675.8192    2779.6043 
   98860    304.88897   -3130.3871   -2676.8879    2746.8023 
   98870    305.05549    -3130.346   -2676.5991    2725.3127 
   98880    304.81847    -3129.268   -2675.8736    2725.1004 
   98890     303.7712   -3127.8261   -2675.9895    2745.3491 
   98900    301.96292   -3125.6985   -2676.5516    2787.9022 
   98910    299.79808   -3123.8999    -2677.973    2834.8612 
   98920    297.73103   -3121.9379   -2679.0856    2882.1911 
   98930    296.28995   -3120.0934   -2679.3845    2916.3161 
   98940    295.98309   -3119.6845   -2679.4321    2913.3644 
   98950    297.16653   -3120.5105   -2678.4978    2869.7803 
   98960    299.65219   -3123.6334   -2677.9234    2775.3785 
   98970    302.87099   -3126.8403   -2676.3427    2664.5724 
   98980    305.88365   -3131.5135   -2676.5348    2536.3426 
   98990    308.04246   -3133.7813   -2675.5915      2447.95 
   99000    309.02544   -3136.6787   -2677.0268    2371.5424 
   99010    308.74924   -3134.8554   -2675.6143    2369.7525 
   99020    307.52351   -3134.0915   -2676.6736      2375.68 
   99030    305.83454   -3131.1582   -2676.2525     2419.957 
   99040    303.82748   -3130.9614   -2679.0411    2447.5349 
   99050    301.35592   -3128.3304   -2680.0863    2518.3882 
   99060    298.17891   -3123.6381   -2680.1196    2628.9788 
   99070    294.47753   -3119.6787   -2681.6657    2745.3101 
   99080    290.80199   -3115.7129    -2683.167    2863.5221 
   99090    288.05704   -3112.5238   -2684.0608    2957.7488 
   99100    286.67277   -3111.9695   -2685.5655    2998.8689 
   99110    286.45657   -3112.6536   -2686.5712    3003.1857 
   99120    287.13958    -3113.956   -2686.8576    2980.6876 
   99130    288.57855   -3115.6895   -2686.4508    2936.1093 
   99140    290.60287   -3117.7798   -2685.5301    2873.1948 
   99150    293.16705   -3121.1904   -2685.1266    2782.8663 
   99160    296.03655    -3124.306   -2683.9741    2687.3498 
   99170     298.8643   -3126.8004   -2682.2624    2595.8198 
   99180    301.38153   -3130.4982    -2682.216    2493.1711 
   99190    303.56922   -3135.2015   -2683.6653    2385.1037 
   99200    305.83869   -3138.0209   -2683.1091    2299.5837 
   99210    308.51942   -3140.9547   -2682.0555    2211.5127 
   99220     311.5078   -3145.1918   -2681.8475    2110.6374 
   99230    313.97868   -3148.3982   -2681.3787    2035.6472 
   99240    314.91616   -3150.8886   -2682.4747    1997.9868 
   99250    313.87643   -3149.3467   -2682.4793    2042.0569 
   99260     311.0721   -3146.6677   -2683.9716     2130.609 
   99270    307.40321   -3143.1698   -2685.9308    2245.7562 
   99280    303.97044   -3138.9153   -2686.7823     2366.755 
   99290    301.71703   -3135.8566   -2687.0754    2456.0127 
   99300    300.77458   -3136.6538   -2689.2744    2478.8317 
   99310    300.61232   -3137.6287   -2690.4907    2482.6374 
   99320    300.53875   -3137.7867   -2690.7581    2489.2526 
   99330     300.0644   -3137.8413   -2691.5183    2498.8431 
   99340    298.94987   -3134.8616   -2690.1963     2548.796 
   99350    297.07649   -3133.3049   -2691.4262     2590.944 
   99360    294.54223   -3129.4448   -2691.3356    2664.5858 
   99370     291.6604    -3125.274   -2691.4512     2742.433 
   99380    289.28408   -3123.6947   -2693.4065    2780.0342 
   99390    288.20648   -3124.6637   -2695.9784    2766.3537 
   99400    288.94704   -3126.0671   -2696.2803     2718.242 
   99410    291.03148   -3128.6189   -2695.7316    2635.9293 
   99420    293.24211   -3131.0828   -2694.9074     2551.768 
   99430    295.05487   -3134.0711   -2695.1993    2469.3614 
   99440     296.6645   -3134.4259     -2693.16     2421.448 
   99450    298.26585   -3137.9226   -2694.2747    2341.5919 
   99460    299.73426   -3139.5446   -2693.7126    2287.8563 
   99470    300.53033   -3140.4631   -2693.4471    2255.3327 
   99480     300.0458   -3139.9223   -2693.6269    2261.3985 
   99490    298.16999   -3137.9149   -2694.4096     2306.732 
   99500      295.638   -3132.9862   -2693.2471    2396.7218 
   99510    293.45042   -3130.0307   -2693.5454    2461.8388 
   99520    292.08938   -3127.4483   -2692.9874    2513.0357 
   99530     291.3425   -3127.3491   -2693.9992    2528.5949 
   99540    290.28763   -3125.5423   -2693.7615    2567.2076 
   99550     288.5577   -3123.6658   -2694.4581    2615.2334 
   99560    287.13498   -3122.5547   -2695.4632    2649.5594 
   99570    287.61761   -3122.7951   -2694.9857    2638.4858 
   99580    290.91798   -3128.7944    -2696.076    2517.0155 
   99590    296.54148   -3134.0254   -2692.9424    2363.0888 
   99600    303.28896   -3142.4126   -2691.2933    2154.6994 
   99610    309.24428    -3151.136   -2691.1586    1954.0387 
   99620     312.3666   -3155.8194   -2691.1977    1843.2843 
   99630    311.48943   -3154.2336   -2690.9167    1866.7105 
   99640    307.20354   -3150.9194   -2693.9774    1967.4781 
   99650    301.45041   -3145.1201   -2696.7355    2123.9091 
   99660    296.45296   -3139.6025   -2698.6511    2269.5926 
   99670     293.3876   -3135.1629   -2698.7711    2374.8294 
   99680    291.88509   -3133.3129   -2699.1559    2423.5271 
   99690    291.12369   -3131.8478   -2698.8234    2447.1793 
   99700    291.15626   -3132.9474   -2699.8745    2420.4347 
   99710    292.74437   -3135.0553   -2699.6202    2352.5067 
   99720    295.77539    -3138.948   -2699.0046    2238.9113 
   99730    298.97922   -3142.9214   -2698.2125    2120.3402 
   99740    301.16498   -3145.8962   -2697.9361    2031.2014 
   99750    302.15623   -3146.7314   -2697.2969    1991.8572 
   99760    302.40504   -3148.6212   -2698.8166     1963.431 
   99770    301.82969   -3147.9077   -2698.9589    1987.1207 
   99780    299.86945   -3144.0287   -2697.9956    2073.9289 
   99790    296.57494    -3141.387   -2700.2543     2170.945 
   99800    292.74043   -3137.8089   -2702.3797    2287.4863 
   99810    289.28044   -3134.2963   -2704.0135    2396.3093 
   99820    286.79065   -3130.9139   -2704.3345    2486.0388 
   99830    285.33987   -3129.1992   -2704.7778    2536.5294 
   99840    284.85183   -3127.6446   -2703.9491    2564.5653 
   99850    284.89199    -3127.536   -2703.7808    2561.8251 
   99860    284.91939   -3127.9335   -2704.1375    2546.7218 
   99870    285.08348   -3128.3658   -2704.3258    2522.6323 
   99880    286.08608   -3129.7221   -2704.1907    2471.3393 
   99890    288.01145    -3131.319   -2702.9238    2400.5708 
   99900     290.4192   -3133.8733   -2701.8967    2308.7704 
   99910    293.29566    -3137.391   -2701.1359    2197.1574 
   99920    297.07164   -3142.5484   -2700.6768    2054.7771 
   99930    301.80928   -3147.9839   -2699.0654    1898.9027 
   99940    306.52341   -3154.5709   -2698.6405    1735.9311 
   99950    309.76347   -3159.5949   -2698.8452    1617.4117 
   99960    310.74891   -3160.9056   -2698.6901    1580.4871 
   99970    309.69406   -3159.2947   -2698.6483    1615.4967 
   99980    307.34791   -3154.7661   -2697.6094    1713.2588 
   99990    304.11596   -3150.5909   -2698.2414    1829.8881 
  100000     299.7405   -3144.8653    -2699.024    1987.8723 
Loop time of 45.5031 on 4 procs for 100000 steps with 500 atoms

Performance: 189.877 ns/day, 0.126 hours/ns, 2197.652 timesteps/s
35.1% CPU use with 4 MPI tasks x no OpenMP threads

MPI task timing breakdown:
Section |  min time  |  avg time  |  max time  |%varavg| %total
---------------------------------------------------------------
Pair    | 8.5564     | 8.6724     | 8.813      |   3.4 | 19.06
Bond    | 0.0070608  | 0.0086529  | 0.012007   |   2.2 |  0.02
Neigh   | 0.18368    | 0.19033    | 0.19777    |   1.2 |  0.42
Comm    | 26.293     | 26.479     | 26.61      |   2.3 | 58.19
Output  | 0.56405    | 0.60324    | 0.67572    |   5.5 |  1.33
Modify  | 6.8841     | 7.365      | 7.7799     |  11.8 | 16.19
Other   |            | 2.184      |            |       |  4.80

Nlocal:    125 ave 130 max 119 min
Histogram: 1 0 0 0 0 1 1 0 0 1
Nghost:    879.5 ave 891 max 869 min
Histogram: 1 0 1 0 0 0 1 0 0 1
Neighs:    3652.75 ave 3828 max 3480 min
Histogram: 1 0 0 0 1 1 0 0 0 1

Total # of neighbors = 14611
Ave neighs/atom = 29.222
Ave special neighs/atom = 0
Neighbor list builds = 627
Dangerous builds = 0

#write_data      lj-out.data
Total wall time: 0:00:45
