LAMMPS data file via write_data, version 22 Aug 2018, timestep = 20000000

500 atoms
1 atom types

-9.4072267551492317e-01 9.3387036327068369e+00 xlo xhi
-9.4072267551492317e-01 9.3387036327068369e+00 ylo yhi
-9.4072267551492317e-01 9.3387036327068369e+00 zlo zhi

Masses

1 1

Atoms # atomic

451 1 -3.4579570074240473e-01 6.9925808744716567e-01 1.2528426538743638e+00 -25 -25 -12
134 1 -3.3525024699250816e-01 -4.4326828678182539e-01 2.5038856515264740e-01 0 -11 29
248 1 9.3048352991033534e-02 4.4232407707640586e-02 -4.6833333799357441e-01 -2 10 19
252 1 -8.6190363133982506e-01 -4.6861203044416289e-01 -7.9505077437787586e-01 27 -50 45
412 1 -6.5549173325690846e-01 -8.9563953243519490e-01 1.1044802897445094e+00 2 56 88
14 1 -5.5347534757476968e-01 6.9929710589452210e-01 -8.9628831122752761e-01 -32 -4 -78
347 1 2.2960626880027113e+00 2.2897466586987081e-01 -5.1939562203598000e-01 -39 51 25
443 1 1.1057101052515561e+00 -2.8575038406400444e-01 -2.9750105392127468e-01 -61 -35 5
262 1 1.6664393186290809e+00 1.8108569666399954e-01 5.5388265369948320e-01 37 41 -51
291 1 2.0054544291682719e+00 -8.4275627743802417e-01 1.1440155888791796e+00 65 -41 54
253 1 3.2306472108415152e+00 -1.6154843391420981e-01 5.3770026384749348e-01 22 61 4
215 1 3.2303581521523714e+00 -5.4976915767938206e-01 -4.0419263899196212e-01 -35 -52 -12
44 1 3.9117418931605226e+00 2.3362366265279388e-01 1.3449429383724625e+00 5 18 -52
128 1 4.1097929113375375e+00 1.1905949036577823e-02 -2.1089451912557422e-01 41 -29 5
332 1 4.1610851957438291e+00 -6.0561988358686969e-01 7.1473141469164347e-01 30 -72 75
257 1 1.8694214336649906e-01 1.6496943989219237e+00 1.2818804243291653e+00 86 47 44
440 1 -8.4430453053992938e-01 1.8325978156480911e+00 9.6931728526281935e-01 64 5 18
210 1 7.4779687733739797e-01 1.9222440207330918e+00 2.6961202245331828e-01 62 34 -8
21 1 -1.2999231795608923e-01 1.0908228467579968e+00 1.7099348584155427e-01 47 -72 -7
319 1 1.6425049354678012e-01 2.3991499337843116e+00 -7.9156438301699639e-01 51 -59 -6
494 1 2.0760057629757123e+00 2.1101516448404336e+00 3.1453473191062398e-01 40 55 3
92 1 1.3111744654668782e+00 2.0663088014320579e+00 -7.0520508102933011e-01 -25 39 33
339 1 8.2596009730753206e-01 8.8110945137161245e-01 3.8707487173160282e-01 27 -100 -120
211 1 1.2788244698787805e+00 2.3412192530890290e+00 1.4842720430407059e+00 146 17 24
236 1 1.8896101555466873e+00 1.1581923180257547e+00 -2.3649521462777723e-01 4 69 -39
363 1 1.5604201792449062e+00 1.1781433811659494e+00 9.5934945982576258e-01 -27 -26 -67
229 1 3.2435582745456104e+00 9.2666449318081723e-01 1.6431742875344701e-01 -55 -23 -48
421 1 4.1065947153217826e+00 2.2072399160369374e+00 -6.5735039284537056e-01 -19 -33 -37
448 1 2.1955221587174756e-01 2.8222500131518653e+00 1.0191364595885990e+00 10 30 -12
476 1 9.1529443066415062e-01 3.5443861414812785e+00 -7.6994320572211483e-01 48 -21 -32
354 1 8.0171322193723871e-01 3.5098378428140649e+00 3.3813360415191185e-01 10 25 -17
399 1 1.0069710340614149e+00 3.6791373426322931e+00 1.3115426324599215e+00 60 29 27
233 1 1.7974898826669197e+00 3.1831149292363285e+00 1.8747551688446240e-01 20 28 21
348 1 4.1170036301379760e+00 3.4098950683993321e+00 -4.5884143990107379e-01 34 -4 -17
57 1 -1.7405446771161570e-01 -1.0801192985879160e-01 2.7968703061347848e+00 -37 -68 -12
444 1 -5.0899873398234396e-01 -5.9988423484526499e-01 4.0378271478385255e+00 -30 31 65
371 1 6.5007877950833093e-01 -8.3013295608799531e-01 3.3991791126382269e+00 3 31 48
244 1 3.4276579039429778e-01 -3.7464724900434399e-02 4.1912524741472579e+00 -69 -59 18
140 1 8.2602852155174578e-01 4.6353519657575726e-02 2.5379469385196947e+00 -33 74 -64
418 1 2.1512490727641169e+00 -6.6927427647966886e-02 2.4552563399986913e+00 -1 -65 26
389 1 3.9510006677794820e+00 5.9392438462782260e-01 3.4005264683278007e+00 85 57 -33
479 1 4.0127541166132881e+00 -2.7812732187333844e-01 2.7550778295904750e+00 41 -9 -30
122 1 3.2150783265996088e+00 -1.3256682936137854e-01 2.0550115010265984e+00 -29 25 -71
224 1 -6.8809795119021266e-01 1.5494730097557574e+00 2.7667332953142179e+00 31 58 28
66 1 7.0561809342456527e-01 9.9779701106027496e-01 2.0048063592148853e+00 80 30 81
141 1 2.6493090399915977e+00 8.4613659466310365e-01 2.2752988977634527e+00 -30 5 3
472 1 3.9239000537421500e+00 1.6644383418694946e+00 3.8415607607633708e+00 89 -29 -29
162 1 -2.9021393999104950e-01 2.7795039669539556e+00 2.1608877369869051e+00 -18 -67 -1
79 1 -6.8513206129824833e-01 4.0895905126312497e+00 1.9862598451945632e+00 3 -49 4
196 1 -8.6139942306491368e-01 3.4363916286978888e+00 3.1849267610850349e+00 30 26 -56
343 1 1.8408322236490577e+00 3.7064436839568042e+00 3.4496769859930696e+00 -6 -19 -12
177 1 1.0163928934176021e+00 3.0829716742288422e+00 3.6588106565359455e+00 14 77 11
410 1 3.9380727290613065e+00 2.6198124564585537e+00 3.2299233241193717e+00 9 0 98
492 1 3.8340303571611729e+00 2.8272467366536942e+00 2.0275419324000659e+00 21 -37 20
434 1 2.9078269784422597e+00 2.4954804067959806e+00 2.6089216788858680e+00 16 7 -19
76 1 4.0009081872543035e+00 4.0021737111431941e+00 2.9925471587055710e+00 48 21 16
409 1 -5.3572891879986329e-01 1.4912806803312750e-02 5.6187308654572545e+00 53 7 7
442 1 4.5108139202909903e-01 -2.4121317070509729e-01 5.1559350352833340e+00 55 110 -76
402 1 1.7924973749846207e-01 2.0031493933924671e-02 6.6436280589863763e+00 31 -14 -20
28 1 1.2598893493243222e+00 6.4798893054496554e-01 6.0393333317483400e+00 38 -71 -42
147 1 1.6039627330348996e+00 -3.4282137724108097e-01 5.5978703052915471e+00 -1 29 -29
420 1 2.4059365163481190e+00 4.7939050594941768e-01 5.2299822550326498e+00 68 20 -12
256 1 2.3008899427807639e+00 4.1690902454258350e-01 6.3659624949719298e+00 -51 22 -31
341 1 3.3786259923138848e+00 5.6798546452997711e-01 5.9196505532391859e+00 -28 -8 -85
453 1 3.9772861948797198e+00 2.3296888190775245e-02 5.1702070814737464e+00 -21 16 -16
422 1 -2.9853183366883063e-01 9.9600885902989922e-01 5.8445920586992379e+00 -16 19 -20
458 1 -3.0541315650844036e-01 2.1021112449537753e+00 5.8431868001456886e+00 -91 -70 65
355 1 5.5475315437522044e-01 1.4572154416034828e+00 5.2850631873937468e+00 2 -27 -68
222 1 4.0335551447537421e-01 1.2799830283837759e+00 6.6831334337243335e+00 -33 27 -1
265 1 2.4455590025447638e+00 1.5242844367185802e+00 5.3891789018698422e+00 61 -36 13
245 1 9.7854114923651347e-01 2.4623561958800368e+00 5.3744784001977299e+00 30 66 -90
118 1 3.4815846335309892e+00 1.0578965676937890e+00 4.8586022691351296e+00 -51 -96 25
321 1 -1.8289622102782421e-01 3.2084737637415524e+00 6.4618126732376595e+00 75 4 -38
455 1 5.8106349290204307e-02 3.6854222307233897e+00 4.4383638677094277e+00 10 -70 -34
273 1 -1.7863334474640391e-02 3.0564484900438402e+00 5.2702625129040594e+00 46 -2 -86
178 1 3.9885201960529262e+00 3.0251839696435328e+00 4.2554321300592175e+00 -63 -28 51
325 1 3.1189968685398224e+00 3.3845199525345544e+00 5.9570996095813804e+00 -5 -72 19
185 1 3.9059560036431957e+00 2.8000533730324211e+00 5.4593254312147339e+00 3 -38 23
149 1 4.3026413676358422e-01 -4.5847728846924313e-01 7.7804713882347318e+00 -31 34 43
469 1 -6.6083871771982017e-01 -6.6206680314272548e-01 8.0315544208358070e+00 -7 29 -62
154 1 2.3012151033905703e-01 6.1967147251028321e-01 7.6068671870474169e+00 41 -9 -4
86 1 6.3909751198721443e-02 -6.4060854889609442e-01 9.0098797911508974e+00 82 -59 -18
242 1 2.0578105435242922e+00 -8.3221412146606843e-01 8.5502036976448785e+00 -4 -39 -9
328 1 9.7329878819621563e-01 -2.7843365722527513e-01 8.7122730496318344e+00 -15 3 -78
457 1 1.5936014445364743e+00 -2.0681207968658255e-01 7.7272076985718314e+00 -24 19 27
176 1 2.3375472635755892e+00 4.2965298993131107e-01 7.4499141103496846e+00 -87 68 -8
333 1 2.3411859972138118e+00 -6.0394750989257695e-01 6.9594071957276782e+00 16 23 -124
97 1 1.7642266559302748e+00 7.0485795835657150e-01 8.8134437230970697e+00 10 -31 108
223 1 3.6657911098625631e+00 5.4626162829828462e-01 7.0203387311843493e+00 -2 -24 -29
382 1 2.6240106569526009e+00 1.2413273952305026e-01 8.6025439157753034e+00 66 -39 8
259 1 3.4210714856943554e+00 -4.1433815629288073e-01 7.7450413380921770e+00 -21 7 64
271 1 3.6984074110669445e+00 -2.8350715558753903e-02 8.9756116386449811e+00 -11 2 -43
105 1 3.3219680113155214e-01 9.6404510375415198e-01 8.6865818486051776e+00 20 -55 -47
206 1 5.4362650753796116e-01 1.9118196367679570e+00 7.9947894450761776e+00 -30 28 -5
103 1 -6.6310884689766825e-01 1.4509334205543349e+00 6.7867869996371413e+00 25 26 -52
152 1 -3.6413595843344027e-01 1.7836307252971051e+00 8.5891743833525389e+00 -35 -75 -11
95 1 2.1116053777942989e+00 1.5008802126561762e+00 7.9194657285273617e+00 6 -28 18
258 1 1.9858587624472372e+00 2.2999007411525332e+00 7.3299473072834793e+00 47 13 -78
54 1 1.3005309352303716e+00 8.4244951069686991e-01 7.9581547010297662e+00 7 -79 -56
148 1 2.3559340239562303e+00 2.3255509852789342e+00 8.5120124716370746e+00 27 -95 62
20 1 3.2969334165481854e+00 7.7699282950400761e-01 8.2124709502584405e+00 -45 -8 93
491 1 2.7783957722661321e+00 1.3499709134903473e+00 8.9003789612978128e+00 -32 -50 38
64 1 3.7576436612692099e+00 9.8317917760264573e-01 9.1107271251988760e+00 -48 27 74
74 1 3.1647733897855232e+00 1.8428176432602998e+00 8.0389817872969989e+00 80 22 -13
219 1 2.7580600733467198e+00 1.8033009440871623e+00 6.9339573377975423e+00 4 43 6
88 1 -2.3762058035135714e-01 3.6169389648183348e+00 7.3875548237781317e+00 8 -42 -11
471 1 -3.9047749734374559e-01 3.5371238000501881e+00 8.4496629320913730e+00 6 10 22
34 1 -5.6634965002398885e-01 2.5112150459739309e+00 7.7717603409934295e+00 4 6 -7
112 1 2.1755597617780307e+00 3.4701059612041112e+00 7.0658394586442235e+00 69 1 37
12 1 1.1032921877627273e+00 2.6870287149651548e+00 8.6276737163048320e+00 -13 10 7
362 1 1.3795621345374118e+00 3.4820274726536899e+00 7.9556692455178784e+00 -1 -54 -111
158 1 2.5429758199889734e+00 3.2621456794237229e+00 8.1013270817691527e+00 -73 50 16
467 1 4.1124608415027071e+00 2.4969536426478869e+00 8.4675382743391729e+00 10 -9 28
23 1 3.7317491438738690e+00 3.6628084529308556e+00 8.3754253913494967e+00 11 14 -20
485 1 3.4470874583046021e+00 4.1832193735069678e+00 6.7793672763923567e+00 -14 -55 -76
269 1 3.1860611238844037e+00 3.2157118355410041e+00 7.1760221347519408e+00 80 -22 88
497 1 6.5505256037527437e-01 5.4947526209826378e+00 5.5563170659319860e-01 -56 12 60
474 1 -3.2357575041829600e-01 5.7593536391280491e+00 1.1321464703920281e+00 -1 4 89
351 1 1.3542670702726447e+00 5.3061265015540533e+00 -7.4364429829411161e-01 -1 81 42
373 1 2.2645725594781436e+00 4.4953523140124139e+00 4.1825464574389470e-01 30 -13 23
275 1 9.3608973124404415e-01 4.4954597474409708e+00 6.6255723647052811e-01 48 31 -35
394 1 2.0485089319424197e+00 4.3072011949146383e+00 -7.6778456780152082e-01 -59 -2 -7
379 1 2.7685550244155146e+00 5.4043298149480661e+00 1.4093174167447464e+00 63 -7 60
18 1 3.7021421546624875e+00 4.9864784556360569e+00 -5.1606707919554617e-01 33 -57 38
129 1 2.5760397821836971e+00 5.5475180050776878e+00 -6.3682109339836890e-01 -38 37 88
60 1 2.5667063585182794e+00 5.8029317968401228e+00 4.9237527888093835e-01 -25 48 -17
81 1 3.7255342155577713e+00 4.9713833038109092e+00 1.5799597930080327e+00 -5 34 -18
55 1 -6.6826874317733842e-01 7.1197133507814403e+00 -2.9364341977476305e-01 -27 9 6
441 1 -2.7701961320200619e-01 6.1599954825340744e+00 -2.9026617649005959e-01 -19 -7 21
110 1 3.0319593021802493e-01 6.8980974441840148e+00 -9.2736408419003880e-01 10 24 7
212 1 1.5411333788405339e+00 6.1850524407237604e+00 -1.8758569803788772e-01 74 -23 27
9 1 1.7048138304694742e+00 7.1565445153712570e+00 -6.2314237910254455e-01 -15 48 4
306 1 2.1714701954082276e+00 7.3474479168128664e+00 4.2564138544731245e-01 -24 6 -15
344 1 -8.2704283574567594e-01 8.2419965866158638e+00 4.4185501643752256e-01 6 22 -39
315 1 -1.7511865667320159e-01 8.5752134634122346e+00 -7.5127531802481562e-01 15 53 -52
414 1 1.4825290796203183e-01 8.9177615246837245e+00 4.5876448865119168e-01 -7 2 -3
15 1 1.2834127222489080e+00 8.4890175222273054e+00 -2.1627107411387347e-01 94 -49 -60
31 1 2.2529911677816963e+00 8.8150090418645686e+00 1.1782138952941246e-01 20 -1 19
17 1 2.0631147955412232e+00 8.2671800384989123e+00 1.3360736674211608e+00 35 -40 -1
56 1 9.3325762905292198e-01 8.6348786802210054e+00 1.0580011336776383e+00 1 2 27
498 1 1.1506958071389777e+00 7.7438968781158799e+00 1.5228512865153681e+00 13 29 33
173 1 3.1904257629414365e+00 9.0850377994410660e+00 8.6585838983704089e-01 -42 -65 22
175 1 3.0740563226563671e+00 8.3473167478658379e+00 1.5773747663001636e+00 5 -41 -57
356 1 6.8780907349227305e-01 5.2515855806377614e+00 1.7500802756457499e+00 -40 62 -14
146 1 -8.8183793136061439e-01 4.9532428251834029e+00 2.7053284360684375e+00 -12 60 -38
286 1 2.2442819671652603e-01 4.6731202803971978e+00 2.7566647632441605e+00 -8 26 88
352 1 1.3416038365416800e+00 4.2802238160185846e+00 2.3277198002912471e+00 -12 -44 12
404 1 1.5927116581733336e+00 5.3572022274527180e+00 2.4073891721926541e+00 67 -20 53
174 1 1.3065628314315152e+00 4.6922660772895419e+00 3.4175733319753121e+00 -43 28 -76
287 1 2.9986373611814785e+00 4.2438014287170152e+00 2.1315901178436207e+00 -35 17 9
464 1 2.6694373510006648e+00 4.8694821417208765e+00 3.0468333352716979e+00 -14 74 26
320 1 3.8937632150464214e+00 5.3943662053024388e+00 3.0674597233137115e+00 -116 10 -64
82 1 2.8223104400637107e+00 5.5912520294474781e+00 3.9856000905865674e+00 -16 22 -91
383 1 -7.7059630538713608e-01 7.0643155400696429e+00 2.2554677652852431e+00 -36 91 -40
239 1 -1.5537209872522917e-01 5.9922810800502821e+00 2.3514866313860314e+00 -32 -4 73
114 1 7.4441751367847897e-01 6.1278090758255814e+00 3.6504226037013394e+00 34 52 -12
6 1 1.1102899469351759e+00 7.1225929788123050e+00 3.5409671137800061e+00 -26 -45 76
199 1 9.4204739595373654e-01 6.4040605336900436e+00 2.5907002537840449e+00 -19 5 -7
274 1 1.8816784325522642e+00 6.2194420546633218e+00 2.1140056678858743e+00 37 -22 19
181 1 2.6600812270412608e+00 6.0918243069894178e+00 2.8550788743440552e+00 32 -36 -22
83 1 3.1458977122890914e+00 7.6185800621985820e+00 3.5913424453337042e+00 61 -28 -10
336 1 4.0999270164273511e+00 7.5591921428116038e+00 3.1827996331626549e+00 -10 -9 -14
413 1 3.5250963596056701e+00 6.5967524173353640e+00 3.7079676978735741e+00 -52 0 -61
153 1 4.4633101014181165e-01 8.6034192611686215e+00 2.0581317011545397e+00 0 -51 -18
358 1 -8.3175164210593999e-01 8.6046922935707340e+00 1.9731393413145226e+00 -42 10 13
297 1 -6.5903405909000257e-01 8.2662042301914997e+00 3.0275348744840094e+00 20 39 -12
125 1 2.0226688982548482e+00 7.8403933394093102e+00 3.7047848002194543e+00 5 -13 45
427 1 1.8557933403261133e+00 8.4875210101975576e+00 2.3332276019598472e+00 28 9 -17
53 1 2.3074526240043998e+00 9.1918006124230320e+00 3.6105406002585365e+00 6 18 -45
403 1 2.5668108059406061e+00 7.7833014056771841e+00 2.6771339851354932e+00 -20 -35 -2
167 1 3.5333319544743000e+00 7.6301909203163198e+00 2.3066535517575004e+00 30 -38 13
473 1 3.2110242227470902e+00 8.6500885478571039e+00 3.2364598315645283e+00 -32 75 39
369 1 4.0918493843530488e+00 8.5176668507152851e+00 2.7544220593097690e+00 10 -14 -12
126 1 3.9728349020075848e+00 8.9962131058198285e+00 1.6814987109867054e+00 -60 3 28
187 1 3.8072289359152203e+00 9.1168358096521374e+00 4.0592044970407501e+00 2 -50 3
417 1 2.8049339269282569e+00 9.1213869344783411e+00 2.2245098271024450e+00 -30 -14 -57
346 1 2.4000390486012653e+00 4.2570927701191161e+00 4.2818845986688290e+00 9 -59 -39
209 1 1.4961164739831783e+00 5.4671686582870302e+00 5.3028514010035908e+00 -97 -2 -78
381 1 1.9096450831711036e+00 5.7795190992936494e+00 6.6527010457389721e+00 -48 58 29
91 1 2.3024434255619806e+00 4.2748735345895570e+00 5.3297264428820039e+00 7 62 24
150 1 3.1754448396863131e+00 4.9054136023349439e+00 5.0739135461935581e+00 -132 67 34
294 1 4.1346128841689174e+00 5.4084957493313848e+00 4.3280789664807768e+00 -5 -50 -33
279 1 2.5153728632483050e+00 4.2115740149158034e+00 6.3285070005581678e+00 -35 10 -8
45 1 2.7777511696067032e+00 5.2121200552671656e+00 6.0674645286025184e+00 -65 -46 -20
213 1 4.0932827362598436e+00 4.9707188732980452e+00 6.2556281565374423e+00 -8 -26 -4
314 1 -1.7112539168750529e-01 6.5068979040727193e+00 5.6991112128464207e+00 -14 -64 59
303 1 8.2680780730863246e-01 7.0658451420208674e+00 6.0238740173205123e+00 -30 27 41
459 1 1.6122236183006229e+00 6.6794942458742792e+00 4.5966686731195097e+00 -17 -33 -4
350 1 1.8547098221493359e+00 6.9388642655164903e+00 6.2884509509318836e+00 27 -68 57
89 1 3.6486122321318009e+00 6.2799336908688854e+00 4.8415108788690784e+00 -1 -9 -11
276 1 2.5010542049012843e+00 6.4960557048099341e+00 5.2427240754383835e+00 -1 50 38
416 1 2.7672942730058341e+00 7.1245131058098004e+00 4.4139813153106680e+00 -32 52 -33
487 1 3.4049175552319921e+00 7.3301298852187333e+00 5.1807314138735601e+00 74 -25 20
51 1 -2.1148971104194614e-01 8.9840983556245977e+00 5.7940640308254636e+00 38 -10 4
301 1 -1.5442192940410615e-01 8.5316833856510801e+00 4.2109368270775436e+00 -19 20 13
285 1 1.0005467942630240e+00 7.8962242533696987e+00 4.4885670730441509e+00 -22 58 76
323 1 1.6856247141817207e+00 7.9414572367962641e+00 5.4359326145082703e+00 -9 -41 3
470 1 4.1289788408644670e+00 8.1310611010288731e+00 4.2636690811055100e+00 -71 30 37
201 1 2.8688907683662386e+00 8.1759898556317214e+00 4.7789257228394852e+00 -16 25 -141
270 1 3.8171049485009023e+00 9.0574179956462082e+00 5.2748901981407013e+00 -33 -50 29
36 1 3.0822697384242845e+00 9.0773058100725343e+00 6.6754619201036247e+00 -58 -1 -43
340 1 -6.5223601958752719e-01 4.8734173334153965e+00 8.6379896250752406e+00 -16 -22 41
388 1 6.0602558012989749e-01 4.9369715836012800e+00 7.2484297426743147e+00 -10 105 19
488 1 -4.2604185583910659e-01 4.9229757273186809e+00 7.5853186148495375e+00 29 44 79
293 1 4.5073085001962920e-01 5.7980123645964410e+00 9.0594940809634608e+00 -48 -53 86
139 1 1.4765634119991802e+00 4.5862689121436064e+00 8.5727085174953590e+00 -16 -88 21
203 1 2.2720337175047658e+00 5.8583711247726287e+00 7.6530763065647367e+00 49 4 34
123 1 2.3078059129651636e+00 5.1460022153089700e+00 8.4432787912947287e+00 5 25 25
462 1 1.6696747881597038e+00 4.9046462705601659e+00 7.4926935140097672e+00 9 -25 -44
368 1 1.5573817465505284e+00 5.8335587185018385e+00 8.5810804474030800e+00 1 29 -7
62 1 3.2401829294598157e+00 5.8067366723855347e+00 8.0881670462026012e+00 -47 -21 8
8 1 2.8293423384658052e+00 4.2143404198018883e+00 7.9341791498912926e+00 -27 -18 7
42 1 2.7683188169859712e+00 5.0234771765985862e+00 7.1986297103925416e+00 43 23 -39
193 1 3.7899368944595180e+00 4.7348703823534475e+00 8.1197076206427390e+00 8 22 6
22 1 3.1190125089053113e+00 4.6564902651111932e+00 8.8450074312685896e+00 -41 11 -76
27 1 -5.0282255692314970e-01 6.2254879330960398e+00 8.7709456075041352e+00 53 -32 33
180 1 -1.9629592017062159e-02 7.1945298950145826e+00 8.1790066955078871e+00 50 15 31
278 1 1.0660136058390335e-01 6.0687639630578420e+00 6.8283810446325637e+00 -56 9 118
182 1 1.4825259887694990e+00 7.0983676550129537e+00 8.6356840098532270e+00 48 -11 -45
29 1 2.4501515652755366e+00 6.3572805634949283e+00 8.9275550342220402e+00 -50 28 37
124 1 1.5204109614250143e+00 6.5681007751095652e+00 7.4033748775204380e+00 -6 8 -75
251 1 2.7146603283274828e+00 7.4527111439696654e+00 8.0906667023284360e+00 4 -51 -73
138 1 3.3807847989788158e+00 6.0403900862984834e+00 6.8806059654937419e+00 34 19 -8
327 1 4.0006727476312847e+00 6.7684317596050843e+00 7.4516343841090933e+00 -19 56 3
59 1 3.8928969779070544e+00 7.0617806445650384e+00 8.6941304101266645e+00 4 22 38
133 1 2.4084902163248656e-02 8.5425181297401789e+00 7.3554710955626934e+00 31 -48 7
73 1 -1.1202066727188265e-02 8.7744023752224134e+00 8.3779347019893571e+00 -15 -5 -18
377 1 6.5199446481346057e-01 8.0673708294932247e+00 8.9921338298300135e+00 -40 44 36
337 1 -8.3655127188551415e-01 9.3007614728969425e+00 6.8911906863649151e+00 -3 -34 -46
304 1 1.0667755223314890e+00 8.0709050203510202e+00 7.9686310632159429e+00 26 13 -26
69 1 8.6003156262146030e-01 7.8836611685484410e+00 6.8336353187104741e+00 -16 -43 -26
433 1 9.0870460946164533e-01 9.0879810658698919e+00 7.0254243197990061e+00 -56 14 -3
144 1 9.6815246256878007e-01 9.0663520322669289e+00 8.2793742854068846e+00 40 -55 55
438 1 2.0213407850535545e+00 8.0888744436994742e+00 8.7585470638929568e+00 -35 33 -19
238 1 4.1936090555918470e+00 9.2369034543622135e+00 8.3683589831417091e+00 -24 36 18
329 1 3.0243730805108417e+00 8.9371551321442642e+00 9.0479607079132442e+00 48 -25 -21
361 1 2.8059161862246031e+00 8.9190256361893550e+00 7.6922339119135383e+00 -115 -17 -6
307 1 3.2321646862923661e+00 8.1131614195673443e+00 7.0721725252458878e+00 -27 -50 -77
423 1 3.3758043919611618e+00 8.1371311267935997e+00 8.4427931716697753e+00 57 20 -32
446 1 5.5860873157474638e+00 -7.0843160117004444e-01 -6.0909678682590385e-01 -41 72 -4
221 1 5.5384174771392116e+00 -9.9181255751240927e-02 8.5219263728518801e-01 -42 4 11
218 1 5.3727762778128660e+00 7.1509873553474224e-01 9.2022665029920514e-02 22 -15 109
490 1 6.6094606396858158e+00 2.3389778006979345e-01 8.9084810375692713e-02 20 -75 13
197 1 7.2818905191038663e+00 6.8697388054829700e-01 -7.7312358775877177e-01 -31 77 7
475 1 7.5407869642096568e+00 -4.2492494971869144e-01 2.8945308915966717e-01 60 6 22
426 1 6.5224795979261252e+00 -8.8151018569694761e-01 -9.5363597148306667e-02 12 -48 -5
393 1 7.2434463941917500e+00 2.1133275860809264e-01 1.4820922738651250e+00 22 34 7
267 1 8.1139522737781924e+00 6.1820005671432421e-01 4.8140904286699415e-01 4 19 -52
454 1 9.0131968582698132e+00 5.1582125007282476e-01 -1.5485057730386587e-01 -36 -91 112
130 1 8.4391521734604957e+00 -8.5355231769145601e-01 1.5867879811459562e+00 -29 34 17
217 1 8.7451284528090447e+00 -4.6230679661469948e-01 3.5153605675630240e-01 25 -39 -16
380 1 8.2227682163190572e+00 -1.8331396024932056e-01 -6.1230804401081618e-01 -10 -43 18
456 1 8.4720985701354561e+00 3.9106334442881230e-01 1.4450144302180297e+00 -47 3 -17
75 1 4.4339419471443318e+00 1.0974385019981980e+00 -1.1558676744918694e-01 11 60 -64
39 1 5.6051059104853751e+00 1.7790226208155149e+00 -4.5350955234862822e-01 -51 -12 11
266 1 6.9944760899681748e+00 2.2021941025799565e+00 1.3857832151134373e+00 -46 23 -9
431 1 6.9263142269187368e+00 1.5587520648410775e+00 -3.4782281373010204e-01 -12 -34 53
49 1 7.2908336869098171e+00 1.2036997407596717e+00 1.0066489788697601e+00 10 -11 -43
463 1 6.1958586898093744e+00 8.9261524446868235e-01 7.2245136952373223e-01 71 33 26
335 1 8.2102267771519593e+00 2.1625975478713215e+00 -8.5796095658596216e-01 -46 -46 -23
68 1 9.2410323244216546e+00 1.8191011080899182e+00 -4.0583624692438958e-01 35 -27 -54
295 1 8.1017405569704142e+00 1.2005786218792971e+00 -3.9858682059807859e-01 -86 69 -41
7 1 5.5100203929906417e+00 3.8294122615846469e+00 1.3222761100541556e+00 5 -18 12
61 1 6.8127515995780374e+00 3.8646241802833243e+00 1.1538259720290802e+00 29 33 26
142 1 6.0709776418161496e+00 2.5180508166496964e+00 -8.1225176213271444e-01 -35 1 -4
353 1 8.1012749465165719e+00 3.3556036782653580e+00 1.0942354083867447e+00 22 -44 44
227 1 9.3138551926659829e+00 2.9468599824435260e+00 7.6785320952308522e-01 -71 22 45
408 1 8.9726925974458460e+00 3.1268650783143936e+00 -7.8194340195577716e-01 10 29 36
477 1 7.8111767708705599e+00 3.1111075672721995e+00 -4.0997652138589780e-01 -24 38 30
52 1 5.8619234133005449e+00 -3.4257739224134465e-01 2.0131283158772555e+00 8 84 31
299 1 4.8626724715976115e+00 5.0704874541975342e-01 2.8885595450409189e+00 -19 5 -39
155 1 4.8541338160610152e+00 -6.5039316506226508e-01 3.5571505199476343e+00 58 40 -47
37 1 6.0660848494013342e+00 -3.4875426704788626e-01 3.4147218294992570e+00 51 45 -20
198 1 7.1151385185978011e+00 2.6686153247526212e-01 2.9168453847205500e+00 -30 -11 -63
188 1 5.9389568548095015e+00 6.2103622542926407e-01 2.7451084961407330e+00 14 12 -74
132 1 6.4630787799877902e+00 7.6921508339954925e-01 3.7044952260093398e+00 37 -7 46
292 1 8.0347608883240138e+00 -7.2640332770772975e-01 3.1861918705957528e+00 44 -51 -11
289 1 9.0952286977715104e+00 -5.8543161958468692e-01 2.5502387028723015e+00 0 33 29
425 1 8.0049125576706377e+00 2.2214861174357159e-01 2.4780765606886939e+00 -106 24 -42
80 1 5.4793480234403802e+00 1.0843539283411778e+00 3.8185517999291605e+00 48 36 43
283 1 7.4427066068988186e+00 1.2285485866914527e+00 3.6497374425723530e+00 -28 27 0
316 1 7.2044753712741567e+00 2.1300120783477179e+00 2.6622724318369828e+00 22 -84 18
375 1 7.2887751088124659e+00 1.2363616279890226e+00 2.0111153212798074e+00 -61 54 -52
119 1 8.6885067101570073e+00 1.3591590611207089e+00 3.6907611141923535e+00 80 -45 34
58 1 8.8080182949775789e+00 1.2558059457987740e+00 2.1713143201393916e+00 0 37 -100
33 1 4.9623697767418582e+00 2.9968391251372344e+00 3.0144392635677124e+00 14 -48 -21
311 1 5.2999593071189777e+00 2.6223123509409287e+00 3.9388020210741006e+00 17 105 -37
183 1 4.9730823716300820e+00 4.1955641880807582e+00 2.4913975168181195e+00 43 67 -31
360 1 6.9139631211563533e+00 2.5918705452723381e+00 3.6120168928179188e+00 14 8 3
345 1 7.3496119957274448e+00 3.2062830399981150e+00 2.2594858420873276e+00 -32 31 70
4 1 6.1962965041540921e+00 2.8028513108523203e+00 2.0960568637534402e+00 21 -25 101
16 1 6.1920627918919191e+00 3.1072687688220961e+00 3.1024471395091684e+00 -12 -17 -40
308 1 8.3316513906814986e+00 2.5122276664889100e+00 3.5238756876772559e+00 50 -89 -65
204 1 7.6611290400792491e+00 3.5381247361156740e+00 4.0559282156434673e+00 59 -38 -99
225 1 4.6391768417912136e+00 -6.9105100514043638e-01 4.7135626330269487e+00 57 19 13
397 1 5.3787887556505085e+00 8.5004842063327146e-02 4.5031740152218536e+00 -24 3 -72
247 1 4.6726458273084814e+00 -7.8393215100717084e-01 6.3358879231627308e+00 -15 39 44
228 1 4.9843211829024625e+00 2.3114272425060567e-01 5.5128795793279730e+00 -23 100 -2
406 1 7.0007135174738977e+00 -1.6973423374513530e-01 4.3771405190178578e+00 -40 -27 -30
191 1 5.9722491250083323e+00 1.1745503153218739e-01 5.3176997856224340e+00 20 -35 -11
331 1 6.9001222246304401e+00 5.2080514395332944e-01 6.2146259968544895e+00 74 0 -60
415 1 6.0450185586772323e+00 -7.2091737135406164e-01 4.5461857348102841e+00 -32 76 1
135 1 8.7166691001942844e+00 2.0703447602566416e-01 5.5469202353650129e+00 65 -76 58
184 1 9.3042690270582984e+00 2.6267501397474047e-01 6.6408885865406617e+00 -89 10 71
96 1 9.0271274210665133e+00 -8.6120506097225191e-01 5.8244656673155912e+00 -83 45 18
117 1 8.0951236255376529e+00 -3.1216205897549820e-01 6.3486712727060146e+00 15 11 15
41 1 5.4362085432440042e+00 1.1805552544799336e+00 5.1947615794953617e+00 47 23 -43
159 1 4.8142228645032752e+00 1.8435106731210240e+00 5.5875488455923064e+00 -61 3 11
372 1 4.7546536268878192e+00 1.8894506486032481e+00 4.5173821490286246e+00 -12 8 -3
272 1 5.8483585009071524e+00 2.2484692823064565e+00 4.8730208912377373e+00 -23 -7 75
387 1 4.5451409634464826e+00 9.5335543529189559e-01 4.6499086542184402e+00 31 46 42
234 1 5.2666556357949332e+00 2.4611076947887205e+00 6.4290387153041548e+00 28 23 -72
38 1 5.8739079518732851e+00 1.6418317292579454e+00 6.2721105940175885e+00 -17 -75 32
364 1 6.8449414597117988e+00 1.5210438471231340e+00 4.4443934810519785e+00 9 -45 41
349 1 7.5174490689607332e+00 1.8760613340736390e+00 5.1229356965110364e+00 -24 53 -75
486 1 9.0572974106360729e+00 2.3293435808833212e+00 6.2920875464110724e+00 -54 11 31
365 1 7.6848765163725918e+00 1.5691842418475228e+00 6.2570655603564669e+00 -7 -36 -71
47 1 7.8746408211074161e+00 8.0450135875676509e-01 5.2877694476163102e+00 8 53 22
5 1 8.8149772837777540e+00 1.0837987340530892e+00 6.0697048957670168e+00 -71 -53 -42
157 1 5.1418078642541856e+00 3.0371078024358447e+00 4.9086696948744386e+00 -17 -26 1
342 1 4.3135860850617700e+00 3.6068177944006221e+00 6.4745291982803765e+00 35 -18 -8
163 1 7.5111387444914826e+00 3.9366176135940272e+00 5.3085299923282019e+00 -37 6 35
312 1 6.2987241199841302e+00 3.2055950912209701e+00 4.4704140537800408e+00 -25 6 63
405 1 7.3564492916709359e+00 3.1066492717537040e+00 6.7349898851997754e+00 2 13 38
419 1 6.3767497077767219e+00 2.5440410789070249e+00 6.6680765101556529e+00 14 33 88
357 1 7.8365335164062255e+00 2.8187751939878702e+00 5.1478333981968554e+00 2 27 -61
120 1 9.1065251656933608e+00 3.7985867931687212e+00 6.6120321681344274e+00 8 -9 18
169 1 8.4766901570078943e+00 3.1451138099079126e+00 5.9574864918497870e+00 -15 27 0
401 1 9.3323422501383533e+00 2.5210587138366027e+00 4.9613840413703807e+00 -39 -35 -22
32 1 4.3858497258523501e+00 5.8401157810141546e-02 7.8872739570915886e+00 -8 -53 17
432 1 5.0711337957531422e+00 1.1147678799064975e-01 6.7984413751415520e+00 -17 2 97
40 1 5.5212857446645556e+00 -6.3306184596881443e-01 8.5524919815567024e+00 -7 -30 51
25 1 5.1566627598190689e+00 7.0999226590012521e-01 7.6520227497194604e+00 53 -85 2
77 1 4.6602053930308900e+00 -3.3555900781431980e-01 9.1817493225072067e+00 28 -33 -18
48 1 6.8051437537604391e+00 -6.6808492011044396e-01 8.2829682243759866e+00 -63 52 -13
192 1 6.2631944991899511e+00 3.1992558239602809e-01 6.9995956230653773e+00 24 32 37
137 1 6.2622490022265502e+00 4.1330223777157848e-01 9.3177612247424246e+00 -95 26 11
94 1 6.1980704256584351e+00 4.5381097887098765e-01 8.2680920692806978e+00 -45 42 -9
390 1 7.2437809300903133e+00 5.4362819083619995e-01 7.7997543375733969e+00 -1 0 13
237 1 5.9896090175463153e+00 -4.3895140069769678e-01 7.6487958901858804e+00 28 -92 2
11 1 7.4616280319091111e+00 -6.5202517297558737e-01 7.3010680806058712e+00 7 -22 -3
232 1 7.2530537117216625e+00 -5.3698798314400298e-01 9.2359287696664953e+00 49 -14 23
19 1 8.7569874840706454e+00 -3.9551045314432143e-01 7.2851454896036483e+00 -38 -11 -55
230 1 7.9895002533428947e+00 -2.0226143127919061e-01 8.0279347138073938e+00 19 30 21
93 1 8.0967590812296901e+00 4.3145638650622709e-01 8.8754839285831046e+00 32 31 14
90 1 9.0852102348318482e+00 4.1601555633159482e-01 8.3913376708009011e+00 -40 -8 47
264 1 4.8032876802669522e+00 1.7267140649110364e+00 9.0421758766235225e+00 -15 10 33
165 1 4.8133349912957630e+00 1.4775492168039417e+00 6.7714409300170519e+00 8 -32 -63
111 1 5.5975444274591268e+00 1.7420343581737168e+00 7.3534182378494428e+00 -43 -16 -79