LAMMPS (10 Jun 2014)
Running on 2 partitions of processors
Step T0 T1
0 0 1
500 0 1
1000 0 1
1500 0 1
2000 0 1
2500 0 1
3000 0 1
3500 0 1
4000 0 1
4500 0 1
5000 0 1
5500 0 1
6000 0 1
6500 0 1
7000 0 1
7500 0 1
8000 0 1
8500 0 1
9000 0 1
9500 0 1
10000 0 1
10500 0 1
11000 0 1
11500 0 1
12000 0 1
12500 0 1
13000 0 1
13500 0 1
14000 0 1
14500 0 1
15000 0 1
15500 0 1
16000 0 1
16500 0 1
17000 0 1
17500 0 1
18000 0 1
18500 0 1
19000 0 1
19500 0 1
20000 0 1
20500 0 1
21000 0 1
21500 1 0
22000 1 0
22500 1 0
23000 1 0
23500 1 0
24000 1 0
24500 1 0
25000 1 0
25500 1 0
26000 1 0
26500 1 0
27000 1 0
27500 1 0
28000 1 0
28500 1 0
29000 1 0
29500 1 0
30000 1 0
30500 0 1
31000 0 1
31500 0 1
32000 0 1
32500 0 1
33000 0 1
33500 0 1
34000 0 1
34500 0 1
35000 0 1
35500 0 1
36000 0 1
36500 0 1
37000 0 1
37500 0 1
38000 0 1
38500 0 1
39000 0 1
39500 0 1
40000 0 1
40500 0 1
41000 0 1
41500 0 1
42000 0 1
42500 0 1
43000 0 1
43500 0 1
44000 0 1
44500 0 1
45000 0 1
45500 1 0
46000 1 0
46500 1 0
47000 1 0
47500 1 0
48000 1 0
48500 0 1
49000 0 1
49500 0 1
50000 0 1
50500 0 1
51000 0 1
51500 0 1
52000 0 1
52500 0 1
53000 0 1
53500 0 1
54000 0 1
54500 0 1
55000 0 1
55500 0 1
56000 0 1
56500 0 1
57000 0 1
57500 0 1
58000 0 1
58500 0 1
59000 0 1
59500 0 1
60000 0 1
60500 0 1
61000 0 1
61500 0 1
62000 0 1
62500 0 1
63000 0 1
63500 0 1
64000 0 1
64500 0 1
65000 0 1
65500 0 1
66000 0 1
66500 0 1
67000 0 1
67500 0 1
68000 0 1
68500 0 1
69000 0 1
69500 0 1
70000 0 1
70500 0 1
71000 0 1
71500 0 1
72000 0 1
72500 1 0
73000 1 0
73500 1 0
74000 1 0
74500 1 0
75000 1 0
75500 1 0
76000 1 0
76500 1 0
77000 1 0
77500 1 0
78000 1 0
78500 1 0
79000 1 0
79500 1 0
80000 1 0
80500 1 0
81000 1 0
81500 1 0
82000 1 0
82500 1 0
83000 1 0
83500 1 0
84000 1 0
84500 1 0
85000 1 0
85500 1 0
86000 1 0
86500 1 0
87000 1 0
87500 1 0
88000 1 0
88500 1 0
89000 1 0
89500 1 0
90000 1 0
90500 1 0
91000 1 0
91500 0 1
92000 0 1
92500 0 1
93000 0 1
93500 0 1
94000 0 1
94500 0 1
95000 0 1
95500 0 1
96000 0 1
96500 0 1
97000 0 1
97500 0 1
98000 0 1
98500 1 0
99000 1 0
99500 1 0
100000 1 0
100500 1 0
101000 1 0
101500 1 0
102000 1 0
102500 1 0
103000 1 0
103500 1 0
104000 1 0
104500 1 0
105000 1 0
105500 1 0
106000 1 0
106500 1 0
107000 1 0
107500 1 0
108000 1 0
108500 1 0
109000 1 0
109500 0 1
110000 0 1
110500 0 1
111000 0 1
111500 0 1
112000 0 1
112500 0 1
113000 0 1
113500 0 1
114000 0 1
114500 0 1
115000 0 1
115500 1 0
116000 1 0
116500 1 0
117000 1 0
117500 1 0
118000 1 0
118500 1 0
119000 1 0
119500 1 0
120000 1 0
120500 0 1
121000 0 1
121500 0 1
122000 0 1
122500 0 1
123000 0 1
123500 0 1
124000 0 1
124500 0 1
125000 0 1
125500 0 1
126000 0 1
126500 0 1
127000 0 1
127500 0 1
128000 0 1
128500 0 1
129000 0 1
129500 0 1
130000 0 1
130500 0 1
131000 0 1
131500 0 1
132000 0 1
132500 0 1
133000 0 1
133500 0 1
134000 0 1
134500 0 1
135000 0 1
135500 0 1
136000 0 1
136500 0 1
137000 0 1
137500 0 1
138000 0 1
138500 0 1
139000 0 1
139500 0 1
140000 0 1
140500 0 1
141000 0 1
141500 0 1
142000 0 1
142500 0 1
143000 0 1
143500 0 1
144000 0 1
144500 0 1
145000 0 1
145500 1 0
146000 1 0
146500 1 0
147000 1 0
147500 1 0
148000 1 0
148500 1 0
149000 1 0
149500 1 0
150000 1 0
150500 0 1
151000 0 1
151500 0 1
152000 0 1
152500 0 1
153000 0 1
153500 0 1
154000 0 1
154500 1 0
155000 1 0
155500 1 0
156000 1 0
156500 1 0
157000 1 0
157500 1 0
158000 1 0
158500 1 0
159000 1 0
159500 1 0
160000 1 0
160500 1 0
161000 1 0
161500 1 0
162000 1 0
162500 1 0
163000 1 0
163500 1 0
164000 1 0
164500 1 0
165000 1 0
165500 1 0
166000 1 0
166500 1 0
167000 1 0
167500 1 0
168000 1 0
168500 1 0
169000 1 0
169500 1 0
170000 1 0
170500 1 0
171000 1 0
171500 1 0
172000 1 0
172500 1 0
173000 1 0
173500 1 0
174000 1 0
174500 1 0
175000 1 0
175500 1 0
176000 1 0
176500 1 0
177000 1 0
177500 1 0
178000 1 0
178500 1 0
179000 1 0
179500 1 0
180000 1 0
180500 1 0
181000 1 0
181500 1 0
182000 1 0
182500 1 0
183000 1 0
183500 1 0
184000 1 0
184500 1 0
185000 1 0
185500 1 0
186000 1 0
186500 1 0
187000 1 0
187500 1 0
188000 1 0
188500 1 0
189000 1 0
189500 1 0
190000 1 0
190500 1 0
191000 1 0
191500 1 0
192000 1 0
192500 1 0
193000 1 0
193500 1 0
194000 1 0
194500 1 0
195000 1 0
195500 1 0
196000 1 0
196500 1 0
197000 1 0
197500 1 0
198000 1 0
198500 1 0
199000 1 0
199500 1 0
200000 1 0
200500 1 0
201000 1 0
201500 1 0
202000 1 0
202500 1 0
203000 1 0
203500 1 0
204000 1 0
204500 1 0
205000 1 0
205500 1 0
206000 1 0
206500 1 0
207000 1 0
207500 1 0
208000 1 0
208500 1 0
209000 1 0
209500 1 0
210000 1 0
210500 1 0
211000 1 0
211500 1 0
212000 1 0
212500 1 0
213000 1 0
213500 1 0
214000 1 0
214500 1 0
215000 1 0
215500 1 0
216000 1 0
216500 1 0
217000 1 0
217500 1 0
218000 1 0
218500 1 0
219000 1 0
219500 1 0
220000 1 0
220500 1 0
221000 1 0
221500 1 0
222000 1 0
222500 1 0
223000 1 0
223500 1 0
224000 1 0
224500 1 0
225000 1 0
225500 1 0
226000 1 0
226500 1 0
227000 1 0
227500 1 0
228000 1 0
228500 1 0
229000 1 0
229500 1 0
230000 1 0
230500 1 0
231000 1 0
231500 1 0
232000 1 0
232500 1 0
233000 1 0
233500 0 1
234000 0 1
234500 0 1
235000 0 1
235500 0 1
236000 0 1
236500 0 1
237000 0 1
237500 0 1
238000 0 1
238500 0 1
239000 0 1
239500 0 1
240000 0 1
240500 0 1
241000 0 1
241500 0 1
242000 0 1
242500 0 1
243000 0 1
243500 0 1
244000 0 1
244500 0 1
245000 0 1
245500 0 1
246000 0 1
246500 0 1
247000 0 1
247500 0 1
248000 0 1
248500 0 1
249000 0 1
249500 0 1
250000 0 1
250500 0 1
251000 0 1
251500 0 1
252000 0 1
252500 0 1
253000 0 1
253500 0 1
254000 0 1
254500 0 1
255000 0 1
255500 0 1
256000 0 1
256500 0 1
257000 0 1
257500 0 1
258000 0 1
258500 0 1
259000 0 1
259500 0 1
260000 0 1
260500 0 1
261000 0 1
261500 0 1
262000 0 1
262500 0 1
263000 0 1
263500 0 1
264000 0 1
264500 0 1
265000 0 1
265500 0 1
266000 0 1
266500 0 1
267000 0 1
267500 0 1
268000 0 1
268500 0 1
269000 0 1
269500 0 1
270000 0 1
270500 0 1
271000 0 1
271500 0 1
272000 0 1
272500 0 1
273000 0 1
273500 0 1
274000 0 1
274500 0 1
275000 0 1
275500 0 1
276000 0 1
276500 0 1
277000 0 1
277500 0 1
278000 0 1
278500 0 1
279000 0 1
279500 0 1
280000 0 1
280500 0 1
281000 0 1
281500 0 1
282000 0 1
282500 0 1
283000 0 1
283500 0 1
284000 0 1
284500 0 1
285000 0 1
285500 0 1
286000 0 1
286500 1 0
287000 1 0
287500 1 0
288000 1 0
288500 1 0
289000 1 0
289500 1 0
290000 1 0
290500 1 0
291000 1 0
291500 1 0
292000 1 0
292500 1 0
293000 1 0
293500 1 0
294000 1 0
294500 1 0
295000 1 0
295500 1 0
296000 1 0
296500 1 0
297000 1 0
297500 1 0
298000 1 0
298500 1 0
299000 1 0
299500 1 0
300000 1 0
