LAMMPS (10 Jun 2014)
Processor partition = 0
# ------------------------------- Initialization Section --------------------
units           real
atom_style      full
include         "system.in.init"
    bond_style      hybrid harmonic
    angle_style     hybrid cosine/squared
    #pair_style      hybrid lj/gromacs/coul/gromacs 9 12 0.000001 12
    pair_style      hybrid lj/gromacs/coul/gromacs 9 12 0.000001 12
    special_bonds   lj/coul 0 1 1
    neigh_modify    every 10
     dielectric      15
     pair_style      hybrid lj/gromacs/coul/gromacs 9 12 0.000001 12
     dielectric      15
     pair_style      hybrid lj/gromacs/coul/gromacs 9 12 0.000001 12

# ------------------------------- Atom Definition Section -------------------

# Read the coordinates generated by an earlier simulation

#read_data       "system.data"
#read_data       "system_after_min.data"
read_data       "system_after_npt.data"
  orthogonal box = (-7.02847 -7.02327 13.3246) to (104.528 104.451 136.675)
  2 by 2 by 2 MPI processor grid
  reading atoms ...
  12261 atoms
  reading velocities ...
  12261 velocities
  scanning bonds ...
  2 = max bonds/atom
  scanning angles ...
  2 = max angles/atom
  reading bonds ...
  4290 bonds
  reading angles ...
  3120 angles
  3 = max # of 1-2 neighbors
  3 = max # of special neighbors

# ------------------------------- Settings Section --------------------------

include         system.in.settings
    pair_coeff 2 2 lj/gromacs/coul/gromacs  0.8365200764818 4.7
    pair_coeff 2 3 lj/gromacs/coul/gromacs  1.0755258126195 4.7
    pair_coeff 2 4 lj/gromacs/coul/gromacs  0.9560229445507 4.7
    pair_coeff 2 5 lj/gromacs/coul/gromacs  0.4780114722753 6.2
    pair_coeff 3 3 lj/gromacs/coul/gromacs  1.1950286806883 4.7
    pair_coeff 3 4 lj/gromacs/coul/gromacs  0.9560229445507 4.7
    pair_coeff 3 5 lj/gromacs/coul/gromacs  0.4780114722753 6.2
    pair_coeff 4 4 lj/gromacs/coul/gromacs  0.9560229445507 4.7
    pair_coeff 4 5 lj/gromacs/coul/gromacs  0.6453154875717 4.7
    pair_coeff 5 5 lj/gromacs/coul/gromacs  0.8365200764818 4.7
    bond_coeff 1           harmonic              1.4937858508604 4.7
    bond_coeff 2        harmonic              1.4937858508604 3.7
    angle_coeff  1       cosine/squared        2.9875717017208 180
    angle_coeff  2       cosine/squared        2.9875717017208 120
    pair_coeff 1 1  lj/gromacs/coul/gromacs  1.1950286806883 4.7
    pair_coeff 6 6  lj/gromacs/coul/gromacs  1.1950286806883 4.7
pair_coeff 1 2 lj/gromacs/coul/gromacs 1.3384321223709 4.7
pair_coeff 1 3 lj/gromacs/coul/gromacs 1.3384321223709 4.7
pair_coeff 1 4 lj/gromacs/coul/gromacs 0.9560229445507 4.7
pair_coeff 1 5 lj/gromacs/coul/gromacs 0.4780114722753 4.7
pair_coeff 1 6 lj/gromacs/coul/gromacs 1.3384321223709 5.7
pair_coeff 2 6 lj/gromacs/coul/gromacs 1.3384321223709 4.7
pair_coeff 3 6 lj/gromacs/coul/gromacs 1.3384321223709 4.7
pair_coeff 4 6 lj/gromacs/coul/gromacs 0.9560229445507 4.7
pair_coeff 5 6 lj/gromacs/coul/gromacs 0.4780114722753 4.7

# ------------------------------- Run Section -------------------------------
# -- simulation protocol --
# Define variables
variable tlo world 200 210
variable thi world 500 510
#variable w world ZZZ # order of walkers from last output, replace in submission script with latest order from output

timestep        30.0    # (40.0 should be possible for lipid systems)
thermo          100
thermo_style    custom step temp pe etotal enthalpy press vol spcpu

# Continue the simulation at constant volume (NVT) at 323K.
dump     id2 all dcd 1000 dcd/restmd-${tlo}-${thi}.dcd
dump     id2 all dcd 1000 dcd/restmd-200-${thi}.dcd
dump     id2 all dcd 1000 dcd/restmd-200-500.dcd
dump_modify id2 unwrap yes
fix      fxnvt all nvt temp 323 323 3000.0



# STMD
fix     fxstmd all stmd 50000 1.5 ${tlo} ${thi} -80000 -20000 256 10000 500000 323 10000 1 1
fix     fxstmd all stmd 50000 1.5 200 ${thi} -80000 -20000 256 10000 500000 323 10000 1 1
fix     fxstmd all stmd 50000 1.5 200 500 -80000 -20000 256 10000 500000 323 10000 1 1
#       fixname all stmd RSTFRQ finit Tlo Thi Ulo Uhi binsize TSC1 TSC2 T0 PRTFRQ RE_flag OREST_flag

restart     100000 restart/${tlo}-${thi}.*.restart
restart     100000 restart/200-${thi}.*.restart
restart     100000 restart/200-500.*.restart

# Replica Exchange run
restmd  300000 500 323 fxstmd 0 12345 1
RESTMD: nReplica= 2  walker= 0
STMD Check initial values...
STMD STG= 2 N= 236  bin= 256
STMD Ynew(Y2)=  0.619195 0.619195 0.619195 0.619195 0.619195 0.619195 0.619195 0.619195 0.619195 0.619195 0.619195 0.619195 0.619195 0.619195 0.619195 0.619195 0.619195 0.619195 0.619195 0.619195 0.619195 0.619195 0.619195 0.619195 0.619195 0.619195 0.619195 0.619195 0.619195 0.619195 0.619195 0.619195 0.619195 0.619195 0.619195 0.619195 0.619195 0.619195 0.619195 0.619195 0.619195 0.619195 0.619195 0.650788 0.691031 0.688620 0.737270 0.734696 0.772921 0.776724 0.827632 0.817453 0.844232 0.862100 0.871020 0.899563 0.915210 0.917205 0.954649 0.965599 0.946775 0.943239 0.998429 1.046417 1.064949 1.076754 1.111833 1.121709 1.160896 1.170582 1.225094 1.220358 1.238310 1.273271 1.303502 1.321232 1.294150 1.338032 1.388039 1.377440 1.401908 1.384994 1.428876 1.438643 1.433743 1.527391 1.547988 1.547988 1.547988 1.547988 1.547988 1.547988 1.547988 1.547988 1.547988 1.547988 1.547988 1.547988 1.547988 1.547988 1.547988 1.547988 1.547988 1.547988 1.547988 1.547988 1.547988 1.547988 1.547988 1.547988 1.547988 1.547988 1.547988 1.547988 1.547988 1.547988 1.547988 1.547988 1.547988 1.547988 1.547988 1.547988 1.547988 1.547988 1.547988 1.547988 1.547988 1.547988 1.547988 1.547988 1.547988 1.547988 1.547988 1.547988 1.547988 1.547988 1.547988 1.547988 1.547988 1.547988 1.547988 1.547988 1.547988 1.547988 1.547988 1.547988 1.547988 1.547988 1.547988 1.547988 1.547988 1.547988 1.547988 1.547988 1.547988 1.547988 1.547988 1.547988 1.547988 1.547988 1.547988 1.547988 1.547988 1.547988 1.547988 1.547988 1.547988 1.547988 1.547988 1.547988 1.547988 1.547988 1.547988 1.547988 1.547988 1.547988 1.547988 1.547988 1.547988 1.547988 1.547988 1.547988 1.547988 1.547988 1.547988 1.547988 1.547988 1.547988 1.547988 1.547988 1.547988 1.547988 1.547988 1.547988 1.547988 1.547988 1.547988 1.547988 1.547988 1.547988 1.547988 1.547988 1.547988 1.547988 1.547988 1.547988 1.547988 1.547988 1.547988 1.547988 1.547988 1.547988 1.547988 1.547988 1.547988 1.547988 1.547988 1.547988 1.547988 1.547988 1.547988 1.547988 1.547988 1.547988 1.547988 1.547988 1.547988 1.547988 1.547988 1.547988 1.547988 1.547988 1.547988 1.547988 1.547988 1.547988
RESTMD STAGE 2
RESTMD STG2: istep= 0  TSC2= 500000
RESTMD STG2: f= 1.500000  df= 0.000792
RESTMD STG2: STG= 2
Memory usage per processor = 6.6755 Mbytes
Step Temp PotEng TotEng Enthalpy Press Volume S/CPU 
       0    322.41283   -64538.051   -52755.561   -52599.468     6.977405    1533959.3            0 
     100    333.32666   -65154.669   -52973.336   -54572.174   -71.468537    1533959.3    259.91233 
     200    328.14082   -65307.485   -53315.667   -55618.995   -102.95941    1533959.3    288.14296 
     300    334.50915   -65886.481   -53661.934    -58719.38   -226.06925    1533959.3    254.03012 
     400    330.82122   -66132.313    -54042.54   -60656.021   -295.62449    1533959.3      261.328 
     500    331.52734   -66487.329   -54371.752   -61573.442    -321.9176    1533959.3    261.15244 
     600    325.85189   -66630.573   -54722.403   -62919.927   -366.43163    1533959.3     290.9438 
     700    323.99318   -66865.087   -55024.843   -64563.956   -426.40103    1533959.3    281.51656 
     800    323.33727   -67120.171   -55303.897   -65808.202    -469.5454    1533959.3    286.03293 
     900    324.44321   -67403.034   -55546.344   -66657.418   -496.66813    1533959.3    249.06853 
    1000    321.18943    -67512.79   -55775.009   -67123.872   -507.29739    1533959.3    268.56299 
    1100     329.6476   -67942.836   -55895.953    -69296.99   -599.03013    1533959.3    219.66343 
    1200     324.1429   -68026.186   -56180.471   -69186.841   -581.38842    1533959.3    244.12456 
    1300    328.32162   -68372.517   -56374.092   -70993.282   -653.48194    1533959.3    275.32809 
    1400    321.42863   -68429.836   -56683.313   -72015.757   -685.36457    1533959.3    269.35964 
    1500    328.02463   -68800.882    -56813.31   -73043.895   -725.51176    1533959.3    272.00521 
    1600    328.22229   -69004.822   -57010.026   -74622.806   -787.29625    1533959.3     287.2325 
    1700    329.80179   -69243.274   -57190.756   -75912.323   -836.85933    1533959.3    295.35979 
    1800      330.957   -69503.159   -57408.425   -75823.247   -823.14777    1533959.3    283.12498 
    1900    326.24371   -69615.707   -57693.218   -77404.188   -881.08594    1533959.3    244.76264 
    2000    323.41904   -69720.729   -57901.467   -77619.169   -881.38686    1533959.3    241.49581 
    2100    316.37574   -69675.998   -58114.132   -77613.766   -871.63915    1533959.3    245.42044 
    2200    304.75934   -69331.189   -58193.841   -76435.383   -815.40211    1533959.3    292.76053 
    2300    311.76673   -69176.354   -57782.923   -75131.244   -775.47485    1533959.3    294.40427 
    2400    306.66997   -68679.798   -57472.626   -72405.678   -667.51164    1533959.3    289.16702 
    2500    312.61452   -68429.572   -57005.158   -71408.616   -643.83865    1533959.3    286.92009 
    2600     312.1884   -67966.641     -56557.8   -69029.021   -557.46712    1533959.3    285.17335 
    2700    309.68133   -67432.748   -56115.527   -65931.726   -438.78684    1533959.3    283.81102 
    2800     308.9722   -66906.471   -55615.165   -63945.036   -372.34761    1533959.3    277.13034 
    2900    312.00877   -66483.786    -55081.51   -61356.351   -280.48719    1533959.3    277.10196 
    3000     312.8515   -65980.422   -54547.348    -59235.83   -209.57647    1533959.3    265.96037 
    3100    314.09328   -65494.209   -54015.754   -56257.627   -100.21234    1533959.3     248.9946 
    3200     313.0395    -64920.87   -53480.925   -53971.449   -21.926564    1533959.3    221.79739 
    3300     316.1883    -64497.57   -52942.554   -51129.655    81.037099    1533959.3    277.20177 
    3400    318.97287   -64081.148    -52424.37   -49039.077    151.32358    1533959.3     283.3055 
    3500    317.19702   -63501.466   -51909.586   -47049.993    217.22517    1533959.3    293.71589 
    3600     314.4657   -62823.541   -51331.477   -42892.667    377.21717    1533959.3    288.47034 
    3700    314.14972   -62186.314   -50705.797   -39825.292    486.36167    1533959.3     290.5043 
    3800    314.25199   -61575.699   -50091.445   -36939.517    587.89491    1533959.3    283.49987 
    3900    317.70172   -61066.428   -49456.104   -34707.317    659.27496    1533959.3     281.5347 
    4000    317.16524   -60368.073   -48777.354   -31943.937    752.45853    1533959.3    259.88463 
    4100    319.72844   -59829.215   -48144.826   -28497.248    878.25226    1533959.3    257.03306 
    4200    321.10325   -59344.859   -47610.227   -26530.843    942.25444    1533959.3    290.93532 
    4300     322.2654   -58955.832    -47178.73   -25033.996    989.87586    1533959.3     294.8739 
    4400    323.80181   -58680.817   -46847.567   -23225.585    1055.9093    1533959.3    292.81203 
    4500    336.86134   -59418.216   -47107.709   -26223.953     933.5098    1533959.3    291.96229 
    4600    340.03454   -60358.958   -47932.487   -31345.698    741.43415    1533959.3    262.92406 
    4700      332.382   -60793.773   -48646.962   -33524.964    675.95759    1533959.3    285.70775 
    4800    329.83048   -61354.913   -49301.347   -36621.368    566.79865    1533959.3    283.85942 
    4900     328.3782   -61813.201   -49812.708   -38680.567    497.60983    1533959.3    285.18557 
    5000    327.44129   -62274.156   -50307.902   -41264.358      404.249    1533959.3    282.75432 
    5100    328.40385   -62786.258   -50784.828   -44264.184    291.47461    1533959.3    214.10937 
    5200    323.27099   -63029.208   -51215.356   -45543.547    253.53147    1533959.3    299.63616 
    5300    325.91888   -63569.149   -51658.531   -47552.974    183.51956    1533959.3    297.10089 
    5400    329.98869    -64151.48   -52092.132   -50536.491    69.537578    1533959.3    287.94376 
    5500    328.37907   -64505.224   -52504.699   -52566.186   -2.7484845    1533959.3    286.95562 
    5600    327.79916   -64892.858   -52913.526   -54736.501   -81.487493    1533959.3    228.11098 
    5700    324.10269   -65147.051   -53302.805   -55906.923   -116.40481    1533959.3    292.88851 
    5800    326.17195   -65566.499   -53646.633   -58010.565   -195.06898    1533959.3    285.55914 
    5900    328.67816   -65976.936    -53965.48   -59514.003   -248.02054    1533959.3    279.97808 
    6000     327.2149   -66241.351   -54283.371   -60906.486   -296.05513    1533959.3    277.82404 
    6100    321.42406   -66344.188   -54597.832   -61679.002   -316.53033    1533959.3     268.6922 
    6200    328.39048   -66809.806   -54808.864     -63666.2   -395.92543    1533959.3    287.67221 
    6300    323.80146   -66937.915   -55104.678   -64560.104   -422.66024    1533959.3    268.11303 
    6400    320.67806   -67049.602   -55330.509    -65292.09   -445.28549    1533959.3    262.02625 
    6500    303.05943   -66577.311   -55502.086   -63839.654   -372.69166    1533959.3    287.90897 
    6600    303.56264   -66137.195    -55043.58   -61063.565   -269.09501    1533959.3    284.22259 
    6700    305.48489   -65648.563     -54484.7   -59268.616   -213.84239    1533959.3    289.26394 
    6800    306.64821   -65086.108   -53879.732   -55630.671   -78.267463    1533959.3    294.45284 
    6900    312.29465   -64685.401   -53272.677   -52806.423    20.841654    1533959.3    280.40259 
    7000    314.21977   -64135.961   -52652.884   -50205.855    109.38289    1533959.3    279.82361 
    7100    312.08513   -63410.758   -52005.691   -46585.578    242.28058    1533959.3    289.52871 
    7200    314.32405   -62886.313   -51399.425   -44077.835    327.27715    1533959.3    294.43982 
    7300     315.5379   -62269.284   -50738.036   -41141.569    428.96478    1533959.3    295.37727 
    7400      313.995   -61449.967   -49975.104   -37199.456    571.07512    1533959.3    275.23721 
    7500    313.46118   -60648.332   -49192.978   -33158.414    716.74954    1533959.3     278.2749 
    7600    312.37396   -59858.348   -48442.725   -30001.897    824.31024    1533959.3     286.0821 
    7700     324.0929   -59784.977   -47941.089   -29496.576    824.47498    1533959.3     286.9513 
    7800    325.97783   -59363.638   -47450.866   -27673.899    884.03603    1533959.3    286.25001 
    7900     320.6283    -58550.94   -46833.665   -23758.514    1031.4658    1533959.3    282.85824 
    8000    336.35437   -58979.683   -46687.703   -25957.593     926.6418    1533959.3    278.85379 
    8100    340.97858   -59791.438   -47330.467   -28667.379    834.24533    1533959.3    286.47054 
    8200    332.30131   -60244.294   -48100.432   -31795.826     728.8205    1533959.3      296.219 
    8300    325.15695   -60671.726   -48788.953   -33991.292    661.45964    1533959.3    292.57041 
    8400    329.57022   -61520.382   -49476.327   -38566.966    487.65153    1533959.3     290.4528 
    8500    321.52949   -61745.191   -49994.982   -39654.522    462.22152    1533959.3    290.46044 
    8600    323.95129   -62320.675   -50481.962   -42890.802    339.32699    1533959.3    272.73072 
    8700     309.3121   -62065.806   -50762.079   -41925.799     394.9842    1533959.3     287.2565 
    8800    305.60719   -61433.211   -50264.878     -39002.1     503.4494    1533959.3    286.99273 
    8900    312.16164   -60898.827   -49490.964    -36440.35    583.36614    1533959.3    281.88379 
    9000    313.70558   -60132.004   -48667.718   -32230.597    734.74395    1533959.3    278.31977 
    9100    318.46922   -59630.796   -47992.424   -29582.688    822.92041    1533959.3     215.8191 
    9200    315.20981   -58772.053   -47252.795   -24974.742    995.83528    1533959.3    291.55963 
    9300    323.51373    -58571.56   -46748.837   -24448.747    996.82033    1533959.3    291.29984 
    9400    322.95606   -58245.194   -46442.852   -22744.732    1059.3127    1533959.3    290.81671 
    9500    328.62895   -58897.152   -46887.495   -25309.447    964.54484    1533959.3    287.33089 
    9600    329.95098   -59815.358   -47757.388   -30637.225    765.27612    1533959.3    232.19415 
    9700    334.92237   -60813.576   -48573.928   -35762.951    572.65431    1533959.3    286.42457 
    9800    326.89302   -61071.423   -49125.206   -37389.432    524.59243    1533959.3    284.85089 
    9900    326.60055   -61467.432   -49531.902   -39532.777    446.96373    1533959.3    284.14172 
   10000    321.91644   -61626.659   -49862.309   -40144.817    434.37464    1533959.3    282.67428 
   10100     329.9168   -62021.817   -49965.096   -41683.569    370.18661    1533959.3     270.0944 
   10200    335.38622   -62416.742   -50160.142   -43550.674    295.44509    1533959.3    300.79525 
   10300    331.56316   -62775.107   -50658.221   -45228.161     242.7252    1533959.3    289.19713 
   10400    329.61568   -63232.443   -51186.727   -47957.034    144.36818    1533959.3    294.78685 
   10500    326.38024   -63529.007   -51601.529   -48922.706    119.74417    1533959.3    283.54395 
   10600    323.37707    -63755.49   -51937.762   -50458.437     66.12624    1533959.3    286.16486 
   10700    327.41749   -64047.991   -52082.607   -51498.666    26.102335    1533959.3    286.04113 
   10800    330.16558   -64331.122   -52265.309   -53556.634   -57.722572    1533959.3    283.45887 
   10900    328.26517    -64508.28   -52511.918    -53469.81   -42.818042    1533959.3    288.87784 
   11000    326.36555   -64810.247   -52883.305    -54765.38   -84.129263    1533959.3    287.64321 
   11100    316.64594   -64775.916   -53204.176   -54864.266    -74.20652    1533959.3    285.62603 
   11200    327.84556   -65103.508    -53122.48   -57074.463   -176.65474    1533959.3    258.22591 
   11300    328.83515   -65323.602   -53306.409   -57384.701   -182.30078    1533959.3     290.8151 
   11400    326.12497   -65585.471   -53667.322   -58874.736   -232.77287    1533959.3    271.77679 
   11500    323.65372   -65822.628    -53994.79   -59749.931   -257.25644    1533959.3    294.91661 
   11600    311.06412   -65655.012   -54287.257   -60284.533   -268.07994    1533959.3    281.09941 
   11700    325.48303   -66262.076   -54367.386   -62131.329   -347.05046    1533959.3     288.1105 
   11800    327.37793   -66540.562   -54576.624   -62723.294   -364.15846    1533959.3     287.9487 
   11900    325.29926   -66724.741   -54836.767   -64197.792   -418.44049    1533959.3    266.11392 
   12000    333.58288   -67204.963   -55014.266   -66230.879   -501.38576    1533959.3    260.51027 
   12100    330.88479   -67444.528   -55352.433   -67050.908   -522.92517    1533959.3      277.994 
   12200     327.2726   -67617.185   -55657.096   -68651.889   -580.87094    1533959.3    293.31536 
   12300    328.73913   -67863.354   -55849.671   -69805.999   -623.85181    1533959.3    287.11944 
   12400    323.50111   -67952.873   -56130.612   -70063.159   -622.78879    1533959.3    285.79438 
   12500    321.07712   -68032.575   -56298.898   -70604.335   -639.45705    1533959.3    282.42132 
   12600    322.41466   -68158.905   -56376.347   -71268.944   -665.70328    1533959.3     283.5221 
   12700    324.29091   -68417.603   -56566.479   -72382.461   -706.97888    1533959.3    299.92477 
   12800    324.84248   -68611.094   -56739.813   -72748.748   -715.60393    1533959.3    295.11934 
   12900     329.7893   -68893.851    -56841.79   -74247.839   -778.05531    1533959.3    294.49439 
   13000    325.85656   -68988.485   -57080.144   -74532.503    -780.1254    1533959.3    300.65338 
   13100    323.75193   -69099.288   -57267.861   -75861.349   -831.13416    1533959.3    263.54557 
   13200    318.62526   -69138.116   -57494.041   -75140.102    -788.7839    1533959.3    285.37029 
   13300    327.92862   -69521.844   -57537.781     -77133.4   -875.92972    1533959.3    290.18634 
   13400    322.85023   -69556.427   -57757.952   -77957.734   -902.93596    1533959.3    290.10405 
   13500    321.33197   -69554.256   -57811.265   -77178.762    -865.7326    1533959.3    293.97672 
   13600    302.32894   -68850.291   -57801.761   -74935.528   -765.88425    1533959.3    297.91969 
   13700    302.16587   -68481.294   -57438.723   -72742.414   -684.07931    1533959.3    299.89947 
   13800    304.46715   -68100.252   -56973.582   -70718.283   -614.39203    1533959.3    301.14122 
   13900    307.46429   -67695.269   -56459.069   -68759.297   -549.82369    1533959.3    292.52185 
   14000    308.96857   -67210.141   -55918.968   -66674.347   -480.76851    1533959.3    289.16104 
   14100    317.90506    -66995.32   -55377.565   -64606.602   -412.54057    1533959.3    256.21049 
   14200     315.4921   -66451.933   -54922.359   -61653.661   -300.89112    1533959.3    298.21115 
   14300    316.35818    -65962.37   -54401.146    -60017.28   -251.04281    1533959.3     294.2215 
   14400    313.84393   -65265.891   -53796.548   -55711.168   -85.584053    1533959.3    287.94613 
   14500    310.75081   -64536.395    -53180.09   -52130.107    46.934505    1533959.3    289.52531 
   14600    314.97709   -64054.291   -52543.538   -50094.358    109.47905    1533959.3    267.61147 
   14700    307.50273   -63068.457   -51830.852   -45103.077    300.73343    1533959.3    278.48331 
   14800    318.06847   -62830.406   -51206.679   -43555.193    342.02361    1533959.3    271.51641 
   14900    320.02338   -62311.138    -50615.97   -40593.588     448.0033    1533959.3    281.45309 
   15000    319.10696   -61776.528    -50114.85   -38003.647     541.3742    1533959.3    286.00602 
   15100    312.82616   -60884.709   -49452.561   -34529.814    667.05101    1533959.3    230.12991 
   15200    316.70075   -60249.439   -48675.695   -30977.287    791.12386    1533959.3    286.59876 
   15300    320.37732   -59721.993   -48013.891   -28591.092    868.20459    1533959.3    283.25633 
   15400    322.97245   -59240.015   -47437.074   -26459.799    937.69012    1533959.3    281.57912 
   15500    322.41874   -58708.186   -46925.479   -23917.469    1028.4646    1533959.3      282.596 
   15600    343.89948   -59592.444    -47024.73   -27492.518    873.09542    1533959.3    233.74865 
   15700    332.79505    -59779.39   -47617.485   -28224.691    866.86335    1533959.3    285.06927 
   15800    333.41458   -60599.691   -48415.145   -33373.439    672.36853    1533959.3    287.36455 
   15900    325.73629   -60931.303   -49027.358   -35238.519    616.36497    1533959.3    285.05377 
   16000    326.20335    -61505.88   -49584.866   -38167.839    510.34434    1533959.3    284.38254 
   16100    325.56582   -61979.121   -50081.405   -40931.292    409.01267    1533959.3     179.7194 
   16200    331.62085   -62790.849   -50671.854   -44709.557    266.51636    1533959.3    289.17121 
   16300    322.86746   -62973.669   -51174.564   -45910.299    235.31414    1533959.3    287.79124 
   16400    323.58067   -63470.651   -51645.482   -48196.283    154.18019    1533959.3    286.43943 
   16500    325.41104   -63920.297   -52028.238   -50772.638    56.125683    1533959.3    283.85693 
   16600     321.3694   -64096.818    -52352.46   -51541.392    36.254952    1533959.3    242.78156 
   16700    322.32059   -64407.692   -52628.573   -53099.017   -21.028963    1533959.3    285.88827 
   16800    323.92828   -64746.717   -52908.845   -55369.734   -110.00244    1533959.3      292.208 
   16900    322.78954   -64989.081   -53192.824   -56637.368   -153.97208    1533959.3     289.9366 
   17000    322.08643   -65248.922    -53478.36   -57072.813   -160.67309    1533959.3    284.07879 
   17100    320.53295   -65489.168   -53775.377   -58675.254   -219.02589    1533959.3    269.91137 
   17200    319.27229   -65737.902   -54070.182   -59949.709   -262.81653    1533959.3    297.11226 
   17300    327.63736   -66230.947   -54257.528   -61668.023   -331.25126    1533959.3    293.56602 
   17400    328.32247   -66516.032   -54517.576   -63219.367    -388.9725    1533959.3    294.23615 
   17500    325.13882   -66678.038   -54795.927   -64002.256   -411.52548    1533959.3    294.97302 
   17600     325.2956   -66967.482   -55079.642   -64708.387   -430.40761    1533959.3    247.41522 
   17700    327.34625   -67262.986   -55300.205   -66077.599   -481.75256    1533959.3    304.24637 
   17800    324.98894   -67457.982   -55581.348   -67506.143   -533.04171    1533959.3    299.88596 
   17900    324.69014   -67658.834    -55793.12    -68844.34    -583.3932    1533959.3    292.11317 
   18000    326.64054   -67915.919   -55978.928   -69924.666   -623.37844    1533959.3    284.41821 
   18100    325.91469   -68090.292   -56179.827   -70539.621   -641.88683    1533959.3    251.39468 
   18200    323.32075   -68177.444   -56361.774   -70566.256   -634.94437    1533959.3    300.48795 
   18300    323.65646   -68391.566   -56563.627    -71485.24   -667.00033    1533959.3    303.62001 
   18400    326.44093   -68632.828   -56703.132    -72474.61   -704.98953    1533959.3    301.13668 
   18500    330.06553   -68889.484   -56827.328   -73484.094   -744.56214    1533959.3    295.10543 
   18600    325.64071   -68993.363   -57092.911    -73867.31   -749.82041    1533959.3    302.22161 
   18700    329.86199   -69291.823   -57237.105   -75112.185   -799.02113    1533959.3    302.65624 
   18800    329.77215   -69522.926   -57471.491   -76571.127   -853.75913    1533959.3    289.04745 
   18900    326.04168   -69638.109   -57723.003   -77008.766   -862.07908    1533959.3     290.2512 
   19000    321.47084    -69669.58   -57921.515   -77596.406    -879.4732    1533959.3    278.63298 
   19100    321.30013     -69727.2   -57985.373   -77651.583   -879.08515    1533959.3    215.27235 
   19200     321.7653   -69729.562   -57970.736   -77310.719   -864.50271    1533959.3    293.78234 
   19300    308.24459   -69162.276    -57897.56   -75998.226   -809.10491    1533959.3    299.41563 
   19400     304.4935   -68722.201   -57594.568   -73747.742   -722.05145    1533959.3    297.36229 
   19500      303.064   -68270.546   -57195.153   -71449.628   -637.17906    1533959.3    297.82301 
   19600    306.87273   -67911.099   -56696.518    -69388.73   -567.34547    1533959.3    197.13243 
   19700    305.04736   -67322.122   -56174.248   -66625.293   -467.16467    1533959.3    281.02445 
   19800    312.57932   -67018.824   -55595.697   -64790.172   -410.99561    1533959.3    283.21234 
   19900    314.13988   -66559.433   -55079.276   -61735.358   -297.52877    1533959.3    293.00513 
   20000    311.64939   -65936.425   -54547.282   -59147.388   -205.62601    1533959.3    287.39665 
   20100    312.40075   -65358.853   -53942.252   -56155.797   -98.946104    1533959.3    213.79494 
   20200     311.8586    -64719.95   -53323.161   -53467.835   -6.4669735    1533959.3    283.76206 
   20300    312.88009   -64111.448   -52677.329   -50126.631    114.01693    1533959.3    282.73335 
   20400    312.19479   -63398.488   -51989.414   -45732.679     279.6778    1533959.3    280.41384 
   20500    317.50815   -62925.014   -51321.763   -43905.807    331.49536    1533959.3    291.85401 
   20600    320.03965   -62373.192   -50677.429   -41106.352    427.82985    1533959.3    287.74484 
   20700    318.08532   -61707.318   -50082.975   -37686.322    554.13391    1533959.3    282.58648 
   20800    314.85284   -60844.897   -49338.684   -34160.489    678.46962    1533959.3    284.93681 
   20900    317.02923    -60137.03   -48551.282   -29882.988    834.47803    1533959.3    267.61147 
   21000    319.51035   -59533.493   -47857.073   -26873.206     937.9848    1533959.3    277.50953 
   21100    314.52374   -58539.295   -47045.109   -22752.829    1085.8718    1533959.3    281.36209 
   21200      334.814   -59096.271   -46860.583   -24955.357     979.1698    1533959.3     278.9237 
   21300    337.67963    -59708.79   -47368.379   -28631.822    837.52938    1533959.3     267.9219 
   21400    329.67467   -60216.745   -48168.873   -31522.711    744.08811    1533959.3    289.53531 
   21500    323.65258   -60683.367    -48855.57   -33813.898    672.36701    1533959.3    291.76042 
   21600    324.28151    -61268.28   -49417.499   -36841.855    562.13486    1533959.3    280.29278 
   21700    327.88422   -61954.282   -49971.842   -40630.753    417.54933    1533959.3    288.30973 
   21800    328.27405   -62475.891   -50479.204   -42657.988     349.6106    1533959.3    294.52314 
   21900    324.46954   -62806.102    -50948.45   -43815.587      318.841    1533959.3     285.9561 
   22000    330.26483   -63456.587   -51387.147   -47701.763    164.73771    1533959.3    270.31773 
   22100    328.91466     -63807.2   -51787.102   -49530.921    100.85192    1533959.3    275.56107 
   22200    326.32816   -64098.209   -52172.634   -51163.954    45.088277    1533959.3    297.47217 
   22300    325.77256    -64437.91    -52532.64   -52808.525   -12.332132    1533959.3    289.15606 
   22400    323.19893   -64716.948    -52905.73    -53676.66   -34.460827    1533959.3    293.28521 
   22500    322.05304   -65036.314   -53266.972   -56181.188   -130.26628    1533959.3    289.69549 
   22600    329.35199   -65583.364   -53547.284   -58404.674   -217.12669    1533959.3    231.57214 
   22700     330.9223   -65984.405   -53890.939   -60227.658   -283.25315    1533959.3    283.74171 
   22800    326.41311   -66195.363   -54266.683   -61702.052   -332.36312    1533959.3    282.68952 
   22900    316.77931   -66203.115   -54626.501   -62247.936   -340.68033    1533959.3    279.68366 
   23000    324.58267   -66744.984   -54883.197   -63916.886   -403.80845    1533959.3    280.26431 
   23100    326.73142   -67110.191   -55169.879   -65829.875    -476.5048    1533959.3    266.21087 
   23200    329.00695   -67457.522   -55434.051   -67887.219   -556.66013    1533959.3    287.97282 
   23300    327.23881   -67682.041   -55723.187   -68681.418   -579.23662    1533959.3    290.67825 
   23400    321.74297   -67801.377   -56043.366   -69489.837   -601.06102    1533959.3    286.96956 
   23500    330.08735   -68296.055   -56233.101   -71232.162   -670.46228    1533959.3    295.74153 
   23600    326.07609   -68438.386   -56522.023   -71981.483   -691.04227    1533959.3    304.16496 
   23700    334.17622    -68893.27    -56680.89   -74561.406   -799.26412    1533959.3    296.94125 
   23800    329.92087   -69093.631   -57036.762   -75237.057   -813.55836    1533959.3      300.258 
   23900    326.79211   -69293.704   -57351.174   -76585.381   -859.77446    1533959.3    301.83839 
   24000    323.42044   -69450.552   -57631.239   -77073.581   -869.07819    1533959.3    294.60982 
   24100     320.6133    -69545.65   -57828.923    -77482.73   -878.53073    1533959.3     208.1807 
   24200    321.74742   -69582.968   -57824.795   -77829.916   -894.23459    1533959.3    291.55031 
   24300     309.0892    -69004.39   -57708.808   -75552.499   -797.61804    1533959.3    294.10122 
   24400    313.38469   -68768.878   -57316.319   -73631.712    -729.3027    1533959.3    272.62879 
   24500    309.07713   -68297.655   -57002.515   -71672.482    -655.7517    1533959.3    246.69793 
   24600    309.92988   -67937.214    -56610.91   -69253.868    -565.1438    1533959.3    250.92289 
   24700    314.87424   -67673.899   -56166.904   -67765.329   -518.45284    1533959.3    305.46461 
   24800    312.16625   -67195.679   -55787.648   -65899.832   -452.01749    1533959.3    296.48513 
   24900    316.01762   -66905.218   -55356.439   -63652.245   -370.82486    1533959.3    255.62446 
   25000    314.77422   -66420.089   -54916.749   -62089.831    -320.6388    1533959.3     233.4224 
   25100    316.37099   -66009.124   -54447.431   -58666.878   -188.61044    1533959.3    219.42325 
   25200    313.73381   -65442.735   -53977.417   -56749.213   -123.90006    1533959.3    268.74281 
   25300    317.99448   -65119.331   -53498.308   -54426.924   -41.509388    1533959.3    282.49303 
   25400    314.06041   -64404.406   -52927.152   -52024.236    40.360622    1533959.3    276.47308 
   25500    310.09911   -63624.654   -52292.165   -47614.338    209.10021    1533959.3    281.60993 
   25600    318.36613   -63297.116   -51662.512   -45867.857    259.02269    1533959.3    272.65201 
   25700    309.67012   -62190.227   -50873.415   -41131.789    435.45344    1533959.3    273.27625 
   25800    311.47042   -61518.308   -50135.705   -36820.612    595.18843    1533959.3    282.93189 
   25900    313.70462   -60842.827   -49378.576   -34477.904    666.06426    1533959.3    281.81637 
   26000    315.66982   -60162.158    -48626.09   -30087.754    828.66883    1533959.3    282.06843 
   26100    316.12148   -59396.746   -47844.172   -27639.796    903.14133    1533959.3    248.60777 
   26200     319.8405   -58873.125    -47184.64   -24957.259    993.57022    1533959.3    259.20302 
   26300    325.82958   -58700.069   -46792.714   -23183.554    1055.3361    1533959.3    276.37289 
   26400    334.94908   -59102.374   -46861.749   -25800.619    941.43847    1533959.3    292.72702 
   26500    336.90129   -59936.023   -47624.056   -29578.728    806.63126    1533959.3    291.39738 
   26600    327.37734   -60280.492   -48316.575   -32463.244    708.64835    1533959.3    293.13578 
   26700    319.80188   -60570.432   -48883.359    -33849.68    672.00969    1533959.3    288.46777 
   26800     326.0744   -61360.085   -49443.784   -37563.044    531.07242    1533959.3    290.43772 
   26900    323.40766   -61590.721   -49771.875   -38746.157    492.85274    1533959.3    284.22567 
   27000    323.86571   -61906.144   -50070.559    -40751.69    416.55607    1533959.3    279.90278 
   27100    326.91915   -62364.021   -50416.849   -42603.171    349.27361    1533959.3    259.03381 
   27200    326.57416   -62761.089   -50826.524   -44103.678    300.51312    1533959.3    287.09724 
   27300    319.14148   -62783.531   -51120.592   -45442.965    253.79152    1533959.3    282.15989 
   27400    324.86754   -63301.782   -51429.585   -47119.322    192.66998    1533959.3    297.48799 
   27500    327.53074   -63761.896   -51792.373   -49468.761    103.86609    1533959.3    292.29679 
   27600    324.22604   -64012.378   -52163.625   -51027.652    50.778296    1533959.3    292.09628 
   27700    325.23978   -64374.517   -52488.717   -52644.523   -6.9645735    1533959.3    293.13127 
   27800    324.76805    -64683.66   -52815.099   -54247.938   -64.048288    1533959.3    294.13587 
   27900    328.09625   -65085.456   -53095.267    -56260.57   -141.48993    1533959.3     291.4397 
   28000    327.53947   -65407.191   -53437.349   -57209.607   -168.62099    1533959.3    267.59371 
   28100    331.85932   -65857.517   -53729.807   -59938.792   -277.54338    1533959.3    287.26713 
   28200    325.42926   -65958.603   -54065.878   -61002.566   -310.07192    1533959.3    293.76341 
   28300    311.56136   -65748.169   -54362.243   -59452.778   -227.54834    1533959.3    301.82384 
   28400    330.56701   -66502.531   -54422.049   -63549.651    -408.0064    1533959.3    284.04897 
   28500    329.70172   -66791.386   -54742.525   -64201.703   -422.82792    1533959.3    290.94985 
   28600     327.1741   -66975.734   -55019.244   -65196.112   -454.90887    1533959.3     216.6316 
   28700    326.57214   -67253.047   -55318.556   -66011.743   -477.98846    1533959.3    288.23523 
   28800    329.74585   -67586.552   -55536.079    -68103.41   -561.76327    1533959.3    290.00295 
   28900    330.45177    -67877.05   -55800.779   -69581.902   -616.02014    1533959.3    294.26402 
   29000    329.68048   -68102.064   -56053.979   -70698.365    -654.6082    1533959.3    292.30616 
   29100     328.6527   -68318.909   -56308.384   -71299.365    -670.1011    1533959.3    274.73439 
   29200      325.248    -68479.08   -56592.979   -72044.003   -690.66512    1533959.3    294.22914 
   29300    329.44991   -68834.053   -56794.395   -74086.066   -772.94259    1533959.3    302.76701 
   29400    326.73999   -69020.074   -57079.449   -74847.033   -794.21606    1533959.3    298.27074 
   29500    329.76446   -69326.062   -57274.908   -76144.932    -843.4954    1533959.3    303.22403 
   29600    324.63787   -69415.479   -57551.675   -76747.981   -858.08028    1533959.3    261.12935 
   29700    325.91122   -69619.469    -57709.13   -77549.333   -886.86267    1533959.3     300.6036 
   29800     322.0197   -69650.123       -57882   -77440.961   -874.29109    1533959.3    295.29533 
   29900    304.72252    -69256.54   -58120.538   -76093.123   -803.37964    1533959.3    293.37219 
   30000    307.02492    -69022.59   -57802.447    -75032.21    -770.1753    1533959.3    289.77355 
   30100    309.70334   -68708.756   -57390.731   -73167.346   -705.21913    1533959.3    226.95038 
   30200    311.89891   -68374.571    -56976.31   -71605.572   -653.93215    1533959.3    267.84662 
   30300    318.05523   -68153.321   -56530.078   -70388.632   -619.48129    1533959.3    266.52026 
   30400     315.5065   -67681.692   -56151.591   -67129.408   -490.71152    1533959.3     286.6487 
   30500    316.11667   -67290.017   -55737.618   -65525.487    -437.5205    1533959.3    294.54299 
   30600    315.92603   -66902.461   -55357.029   -63855.931   -379.90331    1533959.3    254.57995 
   30700    317.26794   -66527.921   -54933.449   -61981.565   -315.05278    1533959.3     229.0091 
   30800    319.87385   -66252.898   -54563.194   -60104.963   -247.71862    1533959.3    245.10034 
   30900    310.14141   -65608.719   -54274.685   -57303.653   -135.39575    1533959.3     292.3789 
   31000    313.28304   -65191.564   -53742.719   -55162.599   -63.469026    1533959.3    290.02742 
   31100    316.03708   -64733.556   -53184.066   -52807.842    16.817329    1533959.3    286.09107 
   31200    321.58445   -64442.452   -52690.235   -51402.497    57.562258    1533959.3    281.41985 
   31300    322.04435   -64033.045   -52264.021   -48915.697    149.67101    1533959.3     294.3427 
   31400    322.54362   -63709.147   -51921.877   -47417.096    201.36499    1533959.3    266.68159 
   31500    318.50627   -63545.223   -51905.497   -46980.409    220.15282    1533959.3    273.33235 
   31600     334.8269   -64429.724   -52193.565   -50944.959    55.813005    1533959.3    232.00085 
   31700    327.64815   -64731.376   -52757.563   -53532.526   -34.641082    1533959.3    294.05875 
   31800    330.73017   -65323.755   -53237.309   -56265.649   -135.36764    1533959.3    298.79195 
   31900    328.90505   -65657.594   -53637.847   -57493.664   -172.35614    1533959.3    287.53062 
   32000    330.35507   -66062.169   -53989.432   -59761.341   -258.00598    1533959.3    288.96322 
   32100    330.17304   -66449.721   -54383.636   -61633.016   -324.04933    1533959.3    211.64199 
   32200    331.05791   -66884.529   -54786.107   -64025.661   -413.01065    1533959.3      278.233 
   32300    331.70935   -67288.243   -55166.014   -65918.949   -480.65924    1533959.3    272.34379 
   32400    330.03236   -67603.817   -55542.874   -67182.526   -520.29574    1533959.3    294.37741 
   32500    326.36873   -67808.958     -55881.9   -68839.474   -579.20724    1533959.3    285.45322 
   32600    322.30789   -67922.356     -56143.7   -69153.198   -581.52823    1533959.3     288.7945 
   32700    325.77587   -68212.173   -56306.782   -70090.573   -616.13939    1533959.3    267.15959 
   32800    324.73033   -68372.837   -56505.654    -71085.63   -651.72904    1533959.3    275.71613 
   32900     325.1728   -68577.825   -56694.473   -72350.729   -699.83911    1533959.3    274.50963 
   33000    328.33961     -68850.4   -56851.317   -73841.749   -759.47713    1533959.3    264.19931 
   33100    328.37019    -69066.54   -57066.339   -74661.264    -786.4981    1533959.3    270.71588 
   33200    323.21485   -69191.221   -57379.422   -75183.996   -795.86952    1533959.3    285.38815 
   33300    323.57928   -69350.812   -57525.694   -76105.574   -830.52588    1533959.3    289.85425 
   33400    318.01103   -69236.203   -57614.575   -75640.958   -805.78442    1533959.3    235.60289 
   33500    306.21661   -68680.644    -57490.04    -73183.13   -701.48558    1533959.3    234.50941 
   33600    303.27719   -68196.214    -57113.03   -71308.882   -634.55858    1533959.3    285.38097 
   33700    305.78752   -67787.093    -56612.17   -68497.236    -531.2658    1533959.3    282.15894 
   33800    310.74952   -67422.955   -56066.698   -66449.323   -464.10627    1533959.3    289.49933 
   33900    313.83631   -67007.872   -55538.809   -64248.559   -389.32829    1533959.3    289.51932 
   34000    312.76892   -66501.411   -55071.355   -61524.026   -288.43624    1533959.3    279.98107 
   34100    319.47445   -66261.541   -54586.433   -60101.489   -246.52459    1533959.3    270.25503 
   34200    317.08675   -65712.025   -54124.175   -57678.648   -158.88594    1533959.3    277.90356 
   34300    315.60546   -65123.234   -53589.518   -54933.614   -60.081474    1533959.3    294.76096 
   34400    313.45345   -64468.979   -53013.907   -51252.249    78.746598    1533959.3    296.43945 
   34500    318.95529    -64167.94   -52511.805   -49525.166     133.5036    1533959.3    298.76258 
   34600     313.6447   -63422.866   -51960.805   -46538.316    242.38681    1533959.3    297.22363 
   34700    318.89866   -63033.305    -51379.24   -44136.322    323.76048    1533959.3    294.07875 
   34800    314.07215   -62213.737   -50736.055   -40129.195    474.12963    1533959.3    282.38538 
   34900    319.96331   -61894.705   -50201.732   -38619.197     517.7426    1533959.3    269.24846 
   35000    319.22832   -61325.085   -49658.972   -35879.899    615.92844    1533959.3    254.47168 
   35100    319.40307   -60815.105   -49142.606   -33849.796    683.59291    1533959.3    241.59499 
   35200    320.92771   -60449.403   -48721.187   -31561.343    767.04984    1533959.3    247.21077 
   35300    314.75153   -59624.117   -48121.607    -27872.84    905.12565    1533959.3    289.76954 
   35400    319.11353   -59143.816   -47481.898   -25323.973    990.46552    1533959.3    288.64266 
   35500    319.71085   -58570.295   -46886.548   -22662.304    1082.8306    1533959.3    290.69013 
   35600    338.03556   -59140.194   -46786.775   -25270.424    961.78699    1533959.3    290.46889 
   35700    337.52969   -59511.026   -47176.094   -27056.928    899.33245    1533959.3    288.72353 
   35800    331.99382   -59978.878   -47846.253   -30136.545    791.62894    1533959.3    289.40545 
   35900    325.68747   -60335.352   -48433.191   -32907.946    693.98282    1533959.3    288.66272 
   36000    333.72782    -61312.52   -49116.526   -37031.752    540.19281    1533959.3    280.52149 
   36100    333.12666   -61941.995    -49767.97   -39805.003    445.34746    1533959.3    289.15765 
   36200    329.47609   -62409.346   -50368.731    -42859.69    335.65626    1533959.3    297.58635 
   36300    326.32374   -62812.358   -50886.944   -45390.672    245.68493    1533959.3    294.78085 
   36400    327.73609   -63360.239   -51383.212   -47864.348    157.29418    1533959.3    295.28494 
   36500    329.36787   -63820.612   -51783.952   -49769.237    90.058342    1533959.3     296.4229 
   36600    324.79809   -64028.747   -52159.088   -50728.585    63.943932    1533959.3    294.40509 
   36700    326.02748   -64432.618   -52518.031   -52421.485    4.3156218    1533959.3    298.67323 
   36800    325.65556   -64820.194     -52919.2   -54644.788   -77.134311    1533959.3    293.75744 
   36900    324.07058   -65142.664   -53299.592   -56251.896    -131.9688    1533959.3    290.66878 
   37000    325.23771   -65507.064   -53621.339   -58062.765   -198.53298    1533959.3    291.48669 
   37100    326.80861   -65839.767   -53896.634   -59296.405   -241.37131    1533959.3    275.13267 
   37200    330.60108   -66256.838   -54175.111   -61460.493   -325.65866    1533959.3    297.80863 
   37300    327.64922    -66482.17   -54508.318   -62909.685    -375.5435    1533959.3    277.28717 
   37400    324.64077   -66651.025   -54787.115   -63253.038   -378.42913    1533959.3    281.33189 
   37500    325.87006   -66995.607   -55086.773   -65159.098   -450.23576    1533959.3    302.41358 
   37600    326.29799   -67296.402    -55371.93   -66433.089   -494.43693    1533959.3    264.65809 
   37700    320.29263   -67369.225   -55664.217   -67149.238   -513.38366    1533959.3     301.2048 
   37800    325.51388   -67722.228   -55826.411   -68281.201   -556.73265    1533959.3    296.52915 
   37900    324.71238   -67864.715   -55998.188   -69474.839   -602.41012    1533959.3    292.39011 
   38000    326.53546   -68087.631   -56154.481   -70162.621   -626.16782    1533959.3    290.05851 
   38100    324.55299   -68221.488   -56360.786     -70916.7    -650.6535    1533959.3    225.98609 
   38200    327.20766    -68478.44   -56520.724   -71768.268   -681.56955    1533959.3    289.91736 
   38300    326.82577   -68677.699   -56733.939   -73033.121   -728.57803    1533959.3    278.40715 
   38400     326.6133   -68857.995   -56921.999   -73710.896   -750.46844    1533959.3    291.64721 
   38500    327.16277   -69086.626    -57130.55   -75050.474   -801.02567    1533959.3    299.87267 
   38600    331.41946   -69424.732   -57313.097   -75861.997    -829.1411    1533959.3    297.77776 
   38700    328.70253   -69589.431   -57577.085   -77279.732    -880.7139    1533959.3    302.63309 
   38800    319.84579   -69565.532   -57876.854   -77604.315   -881.82311    1533959.3    301.19031 
   38900    322.02967   -69718.977   -57950.489   -78612.897    -923.6155    1533959.3    297.79446 
   39000    321.09662   -69741.749    -58007.36   -78190.005   -902.16995    1533959.3    291.64296 
   39100    302.03609   -69179.009   -58141.181   -75954.553   -796.26279    1533959.3    201.58934 
   39200     313.2226   -69150.143   -57703.507   -75447.326   -793.15372    1533959.3    263.48944 
   39300    308.32909   -68661.196   -57393.392   -73153.009   -704.45935    1533959.3    239.83637 
   39400     306.4343   -68206.867   -57008.308   -71081.243   -629.06419    1533959.3    261.33338 
   39500    306.64184   -67747.302   -56541.158   -67901.036   -507.78976    1533959.3    282.12801 
   39600    306.01905   -67233.662   -56050.278   -66114.513   -449.87415    1533959.3    291.75271 
   39700    316.21358   -67036.143   -55480.203    -64767.65   -415.15153    1533959.3    294.62886 
   39800     316.7293   -66565.007   -54990.219   -61608.431   -295.83594    1533959.3    289.19952 
   39900    320.62324   -66246.505   -54529.414   -59955.799   -242.56093    1533959.3     299.2283 
   40000    318.20163   -65687.706   -54059.113   -57543.861   -155.76921    1533959.3    292.04503 
   40100    312.68105   -64952.553   -53525.708   -54232.683      -31.602    1533959.3    230.18725 
   40200    315.15381   -64493.399   -52976.188   -51239.913    77.611986    1533959.3    276.06619 
   40300    314.55168   -63918.357    -52423.15   -48327.428    183.07991    1533959.3    293.32213 
   40400    313.86454   -63281.044   -51810.949    -45736.11    271.54705    1533959.3    292.67412 
   40500    318.76325   -62822.565   -51173.448   -43626.186    337.36473    1533959.3    278.33288 
   40600    318.86995   -62179.708   -50526.692   -40579.397    444.64688    1533959.3    276.51956 
   40700    318.81911   -61575.323   -49924.164   -37194.194    569.03327    1533959.3    274.22516 
   40800    324.74296   -61311.241   -49443.597   -35444.025    625.78482    1533959.3    274.78479 
   40900    318.80637   -60862.844    -49212.15   -33337.693    709.59273    1533959.3    277.04065 
   41000     314.8422   -60435.267   -48929.443   -31630.052    773.28769    1533959.3    273.72514 
   41100    316.47931   -59915.333   -48349.681   -29286.352     852.1362    1533959.3    269.17312 
   41200    316.86485    -59207.17   -47627.429    -25982.52    967.53358    1533959.3    283.82331 
   41300    322.01457   -58834.116    -47066.18   -24494.893    1008.9429    1533959.3    283.84329 
   41400     325.0333    -58618.17   -46739.915   -22903.013    1065.5163    1533959.3    285.30254 
   41500    326.55924   -58618.522   -46684.503   -22988.497    1059.2182    1533959.3    273.82646 
   41600    337.34056   -59904.203   -47576.183   -29812.594    794.03743    1533959.3    274.03775 
   41700    334.21922   -60521.291   -48307.339   -32950.439    686.45781    1533959.3    277.12577 
   41800    329.83884    -60995.87   -48941.998   -34829.651    630.82587    1533959.3    277.90761 
   41900    333.72932   -61811.325   -49615.277   -39412.192    456.08078    1533959.3    276.24838 
   42000    333.29889   -62441.104   -50260.786   -43402.628    306.56157    1533959.3    261.75203 
   42100     329.4015   -62842.524   -50804.635   -44440.136    284.49489    1533959.3    287.76399 
   42200    328.12643     -63262.1   -51270.807   -47145.864    184.38614    1533959.3    290.26486 
   42300     325.7172   -63594.383   -51691.136   -49201.918    111.26872    1533959.3    285.61961 
   42400    327.37938   -64052.024   -52088.033   -51104.687    43.955818    1533959.3    292.56531 
   42500     326.3994   -64381.776   -52453.598   -52720.021   -11.909219    1533959.3    299.21933 
   42600    323.98272   -64643.493   -52803.632   -53900.947   -49.050287    1533959.3    177.52969 
   42700    327.31617   -65112.283   -53150.601   -55754.474   -116.39386    1533959.3    291.86599 
   42800    323.01324   -65276.469   -53472.037   -57037.932    -159.3965    1533959.3    287.96215 
   42900    322.18833   -65537.513   -53763.227   -58631.021   -217.59175    1533959.3    287.28602 
   43000    326.14994    -65967.75   -54048.688   -60747.912   -299.45722    1533959.3    288.03017 
   43100    326.39973   -66203.889   -54275.698   -61010.147   -301.03178    1533959.3    202.75503 
   43200    324.49481   -66414.825    -54556.25   -62629.782   -360.88918    1533959.3    265.51673 
   43300    329.55241   -66846.222   -54802.818   -64323.694   -425.58587    1533959.3    266.54516 
   43400    329.05929    -67069.51   -55044.126     -65574.2   -470.69729    1533959.3    279.81726 
   43500    323.05637   -67156.948   -55350.939   -66222.162   -485.94675    1533959.3      265.469 
   43600    322.61884   -67366.125   -55576.106   -66729.684   -498.56809    1533959.3    257.72989 
   43700    324.49344   -67602.687   -55744.162   -68336.055   -562.86119    1533959.3    277.13877 
   43800    320.80394   -67673.883   -55950.189   -69401.294   -601.26818    1533959.3    302.31767 
   43900    321.49877   -67906.237   -56157.151   -70462.425   -639.44979    1533959.3    298.10263 
   44000     325.0288   -68177.821   -56299.731    -71241.21   -667.88834    1533959.3    292.57633 
   44100    326.82738   -68377.531   -56433.712    -71943.34   -693.28475    1533959.3    252.67516 
   44200    328.09739    -68562.91   -56572.679   -72796.182   -725.19521    1533959.3    298.74471 
   44300    324.92035   -68662.397    -56788.27   -73745.322   -757.98503    1533959.3    291.68818 
   44400    325.50152   -68841.902   -56946.537   -73821.875    -754.3324    1533959.3    285.57236 
   44500    334.35964   -69165.857   -56946.774   -74955.325   -804.98734    1533959.3    288.87366 
   44600    325.05473   -69133.971   -57254.933    -75019.33   -794.07358    1533959.3    290.27832 
   44700    323.57481    -69273.18   -57448.226   -75771.544   -819.05751    1533959.3    291.01486 
   44800    316.57113   -69219.951   -57650.945   -75662.914   -805.14011    1533959.3    299.20226 
   44900    323.69148   -69462.472   -57633.254   -76893.149   -860.92279    1533959.3    291.41358 
   45000    322.18139   -69533.759   -57759.726   -76829.405   -852.42001    1533959.3    288.06993 
   45100    300.80736   -68940.211   -57947.287   -75612.002   -789.61779    1533959.3    288.18018 
   45200     302.5539   -68643.986   -57587.235   -73859.864   -727.39113    1533959.3    300.16238 
   45300    304.25455   -68230.753   -57111.853    -71644.59   -649.61746    1533959.3    306.94244 
   45400    302.96678   -67667.309    -56595.47   -68939.246   -551.77029    1533959.3    302.85423 
   45500    304.35252   -67128.708   -56006.227    -65524.46   -425.46769    1533959.3    297.14404 
   45600    316.92464   -67029.011   -55447.085   -64461.488   -402.94635    1533959.3    245.04105 
   45700    323.05715    -66841.25   -55035.213   -63593.867   -382.57425    1533959.3    286.06493 
   45800    312.94308   -66198.698   -54762.277   -60504.426   -256.67571    1533959.3     297.3058 
   45900    312.63443   -65743.163   -54318.022   -57661.576   -149.45784    1533959.3    292.55163 
   46000    319.59463   -65461.632   -53782.132   -56736.161   -132.04594    1533959.3    290.17208 
   46100    315.97264   -64782.087   -53234.951   -53163.809    3.1801019    1533959.3    256.41348 
   46200    320.66466   -64415.808   -52697.204   -51345.001    60.443843    1533959.3    279.69056 
   46300    313.06579   -63575.598   -52134.693   -47160.791    222.33483    1533959.3    243.86679 
   46400    318.36301   -63256.718   -51622.228   -45872.649     257.0078    1533959.3    262.47965 
   46500    316.57247   -62631.473   -51062.418   -42883.755    365.58856    1533959.3    253.29085 
   46600    318.76461   -62185.601   -50536.434   -40127.621    465.27688    1533959.3     278.6376 
   46700    321.69554    -61730.75   -49974.473   -38540.291     511.1112    1533959.3     290.4351 
   46800     320.1377   -61036.674   -49337.328   -34953.719    642.95142    1533959.3    285.02549 
   46900    317.77466   -60272.789     -48659.8   -31324.466    774.89431    1533959.3    273.58873 
   47000    315.80128   -59451.498   -47910.625   -27500.011    912.36023    1533959.3    276.57773 
   47100    319.47256   -59039.009    -47363.97   -25488.655    977.83278    1533959.3    279.61151 
   47200    324.80729   -58796.218   -46926.223   -24569.922    999.33297    1533959.3     286.9038 
   47300    332.49579   -59038.879   -46887.909    -25486.92    956.63026    1533959.3    287.64972 
   47400    332.34414   -59596.123   -47450.695   -28705.852    837.89981    1533959.3    286.95071 
   47500    331.48901   -60311.185   -48197.008   -31629.856     740.5564    1533959.3    290.42585 
   47600    329.77223    -60923.33   -48871.893   -34743.992    631.52117    1533959.3    291.54849 
   47700    326.85337    -61258.87   -49314.101   -37007.619    550.10325    1533959.3    289.01578 
   47800     332.8843   -62018.564   -49853.397   -40005.997    440.18155    1533959.3    292.78873 
   47900    329.91945   -62472.696   -50415.879   -42496.746    353.98746    1533959.3    294.67233 
   48000    332.86592   -63159.601   -50995.106   -45664.846    238.26412    1533959.3    289.65288 
   48100    332.22726   -63630.406    -51489.25   -48167.523    148.48216    1533959.3    281.64813 
   48200    328.15968   -63955.644   -51963.137   -50317.102    73.578216    1533959.3    294.97385 
   48300    329.57466    -64457.56   -52413.342   -52044.708     16.47805    1533959.3     283.5681 
   48400    328.29556   -64823.354   -52825.881   -53872.942   -46.803908    1533959.3    282.26737 
   48500    326.41753   -65176.099   -53247.259   -56642.169   -151.75347    1533959.3    281.16423 
   48600    325.22643    -65496.78   -53611.468   -57805.427   -187.47116    1533959.3    227.64522 
   48700    329.18042   -65887.347   -53857.537   -59478.698   -251.26746    1533959.3    296.40091 
   48800     325.4919   -66066.493   -54171.479   -59949.771   -258.29127    1533959.3    293.22062 
   48900    319.71498   -66220.402   -54536.504   -61222.541   -298.86776    1533959.3    289.12357 
   49000    324.30047   -66677.729   -54826.255   -63509.102    -388.1257    1533959.3    282.14072 
   49100    320.58303   -66825.768   -55110.147   -64551.697   -422.03996    1533959.3    238.36487 
   49200    324.44269   -67113.442   -55256.772   -65579.733   -461.43928    1533959.3    286.85102 
   49300    325.32003   -67284.622   -55395.889   -66518.677   -497.19178    1533959.3    287.71582 
   49400     303.5247   -66626.689   -55534.461   -64080.602   -382.01492    1533959.3    290.06713 
   49500     303.6114   -66175.407    -55080.01    -62252.93   -320.63155    1533959.3      292.219 
   49600     309.8744   -65853.637    -54529.36   -59376.167   -216.65363    1533959.3    295.38683 
   49700    310.48169   -65291.637   -53945.167   -57063.853   -139.40617    1533959.3    290.90405 
   49800    314.66701    -64839.78   -53340.359   -54763.828   -63.629483    1533959.3    292.04666 
   49900    309.01733   -63987.619   -52694.664   -50115.661    115.28218    1533959.3    291.48406 
   50000    308.79116   -63285.588   -52000.898   -46883.874    228.73244    1533959.3    251.89623 
   50100     312.5052   -62720.987   -51300.569   -44407.431    308.12521    1533959.3     277.8533 
   50200    310.76905   -61876.158   -50519.186   -40251.847    458.95297    1533959.3    278.41898 
   50300    313.76415   -61237.104   -49770.677   -36889.664    575.78496    1533959.3    282.45232 
   50400    316.15443   -60657.901   -49104.122   -33592.316    693.38212    1533959.3    290.51959 
   50500     315.6322   -59916.782   -48382.088   -30230.425    811.38448    1533959.3     292.2532 
   50600    318.80369   -59301.434   -47650.839   -27276.686    910.73039    1533959.3    291.11908 
   50700     326.9765   -59080.281   -47131.013   -25946.446    946.95616    1533959.3    286.31723 
   50800    331.88838   -58885.662    -46756.89   -25125.532    966.92782    1533959.3    284.91087 
   50900    320.42985   -58589.725   -46879.703   -24395.527     1005.049    1533959.3    289.23701 
   51000    326.85644   -59651.555   -47706.674   -29254.579    824.81387    1533959.3     287.2565 
   51100    328.22066   -60477.886    -48483.15   -33614.245    664.64427    1533959.3    202.49924 
   51200     329.0397    -61182.63   -49157.963   -36909.257    547.52064    1533959.3    294.79825 
   51300    327.89509   -61739.155   -49756.317   -39951.176    438.29256    1533959.3    300.88588 
   51400     325.2934   -62130.043   -50242.283   -41822.839    376.35153    1533959.3    296.10503 
   51500    327.95849   -62638.928   -50653.774   -44566.038    272.12352    1533959.3    292.33876 
   51600    326.23692   -62960.405   -51038.164   -46158.491    218.12276    1533959.3    176.07523 
   51700    319.53578   -63066.867   -51389.518   -46975.282    197.31757    1533959.3    295.01742 
   51800    313.88829   -63096.413    -51625.45   -47359.312    190.69758    1533959.3    295.66731 
   51900    332.55667   -63803.362   -51650.168   -49743.706    85.219352    1533959.3    292.67228 
   52000    328.56982   -64024.735   -52017.239   -51029.891    44.134743    1533959.3    286.88476 
   52100    326.23223   -64344.217   -52422.148   -53250.037   -37.006857    1533959.3    237.11865 
   52200    326.38597   -64668.997    -52741.31   -54577.723   -82.088161    1533959.3    289.08909 
   52300    324.88504   -64837.344   -52964.507   -55603.849   -117.97931    1533959.3    294.09009 
   52400    324.82956   -65093.736   -53222.927   -56614.845    -151.6197    1533959.3     295.3833 
   52500    325.38355   -65414.543   -53523.489   -58721.911   -232.37092    1533959.3    300.64971 
   52600     324.0794   -65632.612   -53789.217   -59338.496   -248.05432    1533959.3    246.76499 
   52700    324.77851   -65920.428   -54051.485   -60415.475   -284.47214    1533959.3    301.21648 
   52800    328.14497   -66262.659   -54270.689   -62042.618   -347.40745    1533959.3     299.6687 
   52900    319.50534   -66199.767    -54523.53   -62639.876   -362.80296    1533959.3    299.41456 
   53000    325.24868   -66522.187   -54636.061   -63391.852   -391.38635    1533959.3    297.60746 
   53100    326.66323   -66793.087   -54855.267   -64548.624   -433.29579    1533959.3    219.59396 
   53200    332.83427   -67186.837   -55023.498   -66282.819   -503.29485    1533959.3    297.82914 
   53300    333.69348   -67505.771   -55311.033   -67357.298   -538.47146    1533959.3    292.26766 
   53400     325.5011   -67560.521   -55665.171   -68210.454    -560.7777    1533959.3    297.34838 
   53500    322.85269   -67717.752   -55919.187   -69111.918   -589.71881    1533959.3    296.00326 
   53600    328.17263   -67998.938   -56005.957   -70263.498   -637.31612    1533959.3     223.4962 
   53700    321.56253   -67969.719   -56218.303   -70170.038   -623.64651    1533959.3    301.03791 
   53800    324.31462   -68214.575   -56362.584   -71927.678   -695.76407    1533959.3    299.67769 
   53900    327.40287   -68432.282   -56467.433   -72227.987   -704.50124    1533959.3    289.87929 
   54000     327.8429   -68594.633   -56613.702   -72875.248   -726.89572    1533959.3    279.18846 
   54100    326.69574   -68701.231   -56762.224   -73914.862   -766.72779    1533959.3    245.63387 
   54200      328.654   -68891.438   -56880.866   -74429.265   -784.41841    1533959.3    283.83541 
   54300    326.09863   -68997.253   -57080.066   -75009.815   -801.46489    1533959.3    304.58176 
   54400    324.68172   -69097.827    -57232.42   -75627.508   -822.26564    1533959.3    304.78316 
   54500    325.77581   -69268.167   -57362.778   -75943.648   -830.57015    1533959.3    301.30563 
   54600    316.49983     -69165.5   -57599.098   -75409.983   -796.15156    1533959.3    285.42719 
   54700    299.87119   -68493.446   -57534.734   -73071.892   -694.51534    1533959.3    302.86429 
   54800    302.00169   -68122.816   -57086.245   -71733.915   -654.75496    1533959.3    301.26819 
   54900    304.71336   -67671.087   -56535.419   -69115.588   -562.33711    1533959.3    293.63754 
   55000    307.45122    -67183.36   -55947.638   -66435.558   -468.81301    1533959.3    296.55808 
   55100    316.33965     -66924.7   -55364.152   -64562.339   -411.16155    1533959.3    224.11731 
   55200    311.62655   -66242.596   -54854.288   -61460.092   -295.28132    1533959.3    291.19447 
   55300    310.69581   -65619.641   -54265.346   -58193.762    -175.6013    1533959.3    301.05973 
   55400    309.04117   -64918.879   -53625.053   -54101.908   -21.315586    1533959.3    297.50234 
   55500    310.54785   -64292.553   -52943.665   -51114.577     81.76077    1533959.3    295.97088 
   55600    311.97104   -63596.599   -52195.701   -47633.294    203.94087    1533959.3    297.23501 
   55700    310.01824   -62756.126   -51426.593   -43606.542     349.5585    1533959.3    285.34913 
   55800    313.74597    -62065.17   -50599.408   -40234.092    463.33255    1533959.3    291.45347 
   55900     315.3408   -61333.661   -49809.616   -36253.519    605.96137    1533959.3    289.85425 
   56000    317.66509   -60667.387   -49058.402   -33203.389    708.72357    1533959.3    236.28138 
   56100    318.58083   -59923.575   -48281.124   -29982.806    817.94001    1533959.3    279.26653 
   56200    321.53657   -59423.063   -47672.595    -28063.05    876.55221    1533959.3    288.78535 
   56300    318.85461   -58630.297   -46977.842   -23896.074    1031.7615    1533959.3    289.74592 
   56400    321.97216   -58387.112   -46620.726   -22491.238    1078.5949    1533959.3    293.60712 
   56500    334.94727   -59103.063   -46862.505   -26234.143     922.0936    1533959.3    289.07255 
   56600    335.20436    -59947.19   -47697.237   -30372.465    774.42217    1533959.3    233.45722 
   56700    333.36567   -60685.855   -48503.096   -33927.007    651.55531    1533959.3    288.39557 
   56800    326.00769   -61031.766   -49117.902   -35628.566    602.97714    1533959.3    285.85223 
   56900    329.56203   -61831.791   -49788.035   -40641.616    408.84753    1533959.3    284.22509 
   57000    323.00231    -62067.69   -50263.657   -41043.932    412.12433    1533959.3    286.71944 
   57100    327.23199   -62596.074   -50637.469   -43551.957    316.72441    1533959.3    266.73128 
   57200     323.8855   -62800.791   -50964.482   -45794.439    231.10238    1533959.3    282.59048 
   57300    321.49903   -63063.996   -51314.901   -46641.758    208.89081    1533959.3    286.47054 
   57400    324.87952   -63547.327   -51674.693   -49606.813    92.434807    1533959.3    287.41752 
   57500    304.23351   -62703.548   -51585.416   -45332.337    279.51442    1533959.3    272.40463 
   57600    308.09609   -62072.127   -50812.838   -42594.677    367.35415    1533959.3    277.88957 
   57700    308.96107   -61231.942   -49941.043   -38359.201    517.71163    1533959.3    275.00946 
   57800    313.12099   -60598.035   -49155.113   -34781.255     642.5155    1533959.3    270.27175 
   57900    316.18926   -59929.986   -48374.934   -31221.616     766.7582    1533959.3    258.93722 
   58000    321.57938   -59460.541   -47708.509   -28790.229    845.65247    1533959.3    259.61213 
   58100    320.51667   -58726.889   -47013.693   -24486.369    1006.9778    1533959.3    265.02917 
   58200    321.99739   -58437.915   -46670.607   -23646.535    1029.1825    1533959.3    287.36278 
   58300    338.93979   -59376.592   -46990.129   -28765.564    814.64322    1533959.3    276.61749 
   58400    335.55894   -59824.934   -47562.023       -30850    747.03215    1533959.3    273.11521 
   58500    333.24643    -60434.53   -48256.128   -33335.729    666.94608    1533959.3    287.69352 
   58600    330.31445   -61003.012   -48931.759   -36881.232    538.66198    1533959.3    294.65059 
   58700    326.52429   -61398.678   -49465.935   -38392.279    494.99557    1533959.3    292.04157 
   58800    326.30663   -61848.403   -49923.615   -40835.219     406.2539    1533959.3    289.48255 
   58900    306.93798   -61289.632   -50072.666     -38850.1    501.65186    1533959.3    292.29781 
   59000    326.58188   -62203.289   -50268.443   -43320.272    310.58517    1533959.3    288.62677 
   59100    328.12596   -62616.012   -50624.737   -44433.927    276.73094    1533959.3    271.99127 
   59200    328.18132    -63071.44   -51078.142   -46481.263    205.48178    1533959.3    295.53523 
   59300    333.83801   -63751.305   -51551.285   -49627.855    85.977864    1533959.3    289.90133 
   59400    327.09772   -63987.045   -52033.347   -50798.858    55.181984    1533959.3    290.37699 
   59500    325.58655   -64311.428   -52412.955    -53373.07   -42.917413    1533959.3    287.82599 
   59600    321.40374   -64430.693    -52685.08   -54706.555   -90.360509    1533959.3    230.09292 
   59700    322.84014   -64670.431   -52872.325   -55081.723   -98.760709    1533959.3    289.85525 
   59800    305.64522   -64205.019   -53035.297    -53157.84   -5.4777382    1533959.3    290.85059 
   59900    306.27471   -63715.551   -52522.824   -50803.621    76.848881    1533959.3    286.00446 
   60000    313.99227   -63392.374   -51917.611   -48894.126    135.15061    1533959.3    285.43049 
   60100    313.28621   -62710.742   -51261.782   -45225.566    269.82055    1533959.3    254.54349 
   60200    304.00393   -61517.137   -50407.395   -39395.496    492.23503    1533959.3    290.90828 
   60300    311.58965   -61029.082   -49642.122   -37194.429    556.41537    1533959.3    291.22864 
   60400    315.63971   -60365.118   -48830.149   -33403.959    689.55508    1533959.3    295.31529 
   60500    319.07824   -59725.956   -48065.328   -29598.074    825.49146    1533959.3     291.6533 
   60600    325.91887   -59479.671   -47569.054   -28740.192    841.65543    1533959.3     285.0497 
   60700    321.72571   -58693.514   -46936.134    -25361.54    964.39045    1533959.3    285.13749 
   60800    338.85726   -59178.773   -46795.325   -26854.968    891.33959    1533959.3    286.22618 
   60900    334.18603   -59202.876   -46990.137   -27717.751    861.48112    1533959.3    282.61828 
   61000    334.67355   -59924.664   -47694.109   -31382.697    729.12474    1533959.3    286.99194 
   61100    331.09871   -60521.566   -48421.653   -34477.387    623.31263    1533959.3    277.92364 
   61200    323.04421   -60785.707   -48980.143   -36435.071    560.76827    1533959.3    250.15202 
   61300    322.09806   -61262.037    -49491.05   -38549.521     489.0894    1533959.3    256.10098 
   61400    310.87411   -60815.316   -49454.505   -36291.691    588.38152    1533959.3    278.11916 
   61500    309.76187   -60218.687   -48898.522   -34126.771    660.30145    1533959.3    288.15959 
   61600    315.32327   -59745.736   -48222.331   -31153.515    762.98092    1533959.3    296.54928 
   61700    315.62287   -59023.306   -47488.954   -28172.645    863.44446    1533959.3    281.62979 
   61800    333.74719   -59321.839   -47125.138   -28266.565    842.98353    1533959.3    269.93986 
   61900     332.2049   -58816.158    -46675.82   -25817.337    932.38006    1533959.3    286.70552 
   62000    333.01096   -59015.966    -46846.17   -27201.146    878.13813    1533959.3    276.48675 
   62100    336.94237   -59980.859   -47667.391   -30654.866    760.46468    1533959.3    262.00645 
   62200    331.51997   -60470.003   -48354.694   -34345.537    626.21329    1533959.3    281.89971 
   62300    327.16774   -60865.087    -48908.83   -36742.057    543.85817    1533959.3     287.7028 
   62400    334.98942   -61697.484   -49455.385    -40213.77    413.10283    1533959.3     290.9878 
   62500    328.04816   -61963.802    -49975.37   -42062.345     353.7145    1533959.3    294.79991 
   62600     326.3141    -62314.06   -50388.999   -44232.375    275.20281    1533959.3    257.26323 
   62700    325.56865   -62622.895   -50725.076   -45485.782    234.19793    1533959.3    287.71839 
   62800    328.24518   -63063.802    -51068.17   -47097.002    177.51234    1533959.3    283.72348 
   62900    326.86447   -63363.299   -51418.125   -48739.971    119.71424    1533959.3    286.51242 
   63000    328.52383    -63718.54   -51712.725   -50562.642    51.409056    1533959.3    290.13415 
   63100    327.10308   -64010.972   -52057.078   -51855.768    8.9986123    1533959.3    224.86371 
   63200     331.2838   -64457.243   -52350.566   -54279.621   -86.229289    1533959.3    298.45836 
   63300    328.68229    -64645.33   -52633.724   -55581.675   -131.77424    1533959.3    300.42661 
   63400    332.37152   -65205.228     -53058.8   -57773.312   -210.74005    1533959.3    296.35337 
   63500     326.0131   -65343.281    -53429.22   -58678.988   -234.66609    1533959.3    299.17985 
   63600    325.38099   -65588.331    -53697.37   -60209.339   -291.08683    1533959.3    247.30624 
   63700    321.40942   -65687.654   -53941.833   -61442.031   -335.26097    1533959.3    293.62727 
   63800     325.3644   -66031.031   -54140.677   -62095.744   -355.59375    1533959.3    296.76938 
   63900    327.69151   -66279.925   -54304.527   -63299.837   -402.09291    1533959.3    297.58255 
   64000    325.22829   -66409.865   -54524.485    -64159.75   -430.69909    1533959.3    292.28742 
   64100     305.0333   -65836.786   -54689.426   -62225.651   -336.87141    1533959.3    244.54131 
   64200    301.61059   -65218.887   -54196.609   -58696.428   -201.14317    1533959.3     288.1388 
   64300    307.22056   -64832.453    -53605.16   -57083.359   -155.47647    1533959.3    290.83788 
   64400    316.86848     -64589.4   -53009.526   -54264.798   -56.111011    1533959.3    289.87949 
   64500    307.45505    -63634.57   -52398.708   -49514.754    128.91357    1533959.3    288.08161 
   64600    311.64162   -63118.712   -51729.853   -48006.324     166.4428    1533959.3    290.09201 
   64700    311.04739   -62348.071   -50980.927   -43234.242    346.27904    1533959.3    288.40568 
   64800    312.00424    -61575.87   -50173.759   -39640.029    470.86071    1533959.3    286.54922 
   64900     315.4405   -60954.171   -49426.483   -36451.811    579.97151    1533959.3    284.64887 
   65000    310.12217   -59887.136   -48553.805   -30814.258    792.96279    1533959.3    285.31419 
   65100    314.56502   -59283.369   -47787.675   -28753.462    850.83473    1533959.3    283.46672 
   65200    323.10574   -59106.788   -47298.976   -27135.264    901.32363    1533959.3    299.07169 
   65300    329.98463   -58922.207   -46863.007   -26039.798    930.80334    1533959.3    294.98443 
   65400    337.45038    -59106.26   -46774.226   -27280.242    871.38661    1533959.3    292.56776 
   65500    335.63989   -59414.279    -47148.41   -28601.111    829.06952    1533959.3    288.62379 
   65600    329.71585   -59919.587    -47870.21   -31078.668     750.5867    1533959.3    291.68534 
   65700    327.39346   -60561.897   -48597.391   -34970.907     609.1077    1533959.3    287.65485 
   65800    328.93674   -61277.285   -49256.381   -39000.407    458.44492    1533959.3    288.15028 
   65900    323.71687   -61533.433   -49703.287   -39340.763    463.20777    1533959.3    282.87026 
   66000    327.52982   -62205.712   -50236.223   -43136.725    317.34954    1533959.3    280.49935 
   66100    330.68658   -62798.279   -50713.427    -45496.83    233.18337    1533959.3    273.43926 
   66200    324.78322   -62930.336   -51061.221   -45724.739    238.54225    1533959.3    294.46317 
   66300    327.43116   -63376.087   -51410.204   -48981.247    108.57506    1533959.3    280.97551 
   66400    324.41448   -63618.724   -51763.084   -50553.666    54.061358    1533959.3     291.0912 
   66500    325.39496   -64023.037   -52131.566   -52156.831   -1.1293648    1533959.3    290.33478 
   66600    328.50521   -64452.067   -52446.932   -54072.003   -72.641109    1533959.3    291.06898 
   66700    325.83508   -64695.237   -52787.682   -55191.852   -107.46707    1533959.3    281.54831 
   66800    326.38573   -65048.933   -53121.254   -56441.902   -148.43387    1533959.3    296.92443 
   66900     325.1386   -65328.478   -53446.376   -58358.564   -219.57619    1533959.3    292.71252 
   67000    324.16186   -65437.998    -53591.59   -59223.029   -251.72693    1533959.3    294.21634 
   67100    329.13603   -65833.479   -53805.291   -60203.518   -286.00254    1533959.3    292.01351 
   67200     329.1137   -66139.236   -54111.864   -61977.276   -351.58613    1533959.3      285.764 
   67300    333.94398   -66682.627   -54478.733   -64846.926   -463.46116    1533959.3    277.54497 
   67400    325.90712   -66820.565   -54910.377   -65008.207   -451.37587    1533959.3     279.4904 
   67500     325.2464     -67108.2   -55222.158   -66449.322   -501.85744    1533959.3    284.38581 
   67600    326.07462   -67390.092   -55473.782   -67786.041   -550.36144    1533959.3    272.08955 
   67700    323.63987   -67517.078   -55689.746   -68379.949   -567.25567    1533959.3    284.33415 
   67800    323.99728   -67672.242   -55831.849    -69420.51   -607.41702    1533959.3    283.13606 
   67900    321.03495   -67735.304   -56003.168   -69146.201    -587.4973    1533959.3    286.01167 
   68000    323.60311   -67931.016   -56105.027   -70422.083   -639.97642    1533959.3    271.42574 
   68100    327.49591    -68205.57    -56237.32   -71075.587   -663.27475    1533959.3     241.6334 
   68200    325.35139   -68333.764   -56443.884   -71726.753   -683.14857    1533959.3    249.50917 
   68300    325.11417   -68480.681   -56599.471   -72672.176   -718.45447    1533959.3    227.06624 
   68400    315.48318   -68385.927   -56856.679   -72661.216   -706.46724    1533959.3    261.92284 
   68500    328.02148   -68853.681   -56866.225   -74384.421   -783.06836    1533959.3    270.85871 
   68600    334.58543    -69181.78   -56954.445   -75221.802   -816.55602    1533959.3    271.64847 
   68700    330.62548   -69316.617   -57233.998   -76292.229   -851.90831    1533959.3    267.80199 
   68800    326.86648    -69432.19   -57486.942   -77395.367   -889.91222    1533959.3    259.12791 
   68900    324.78359   -69552.313   -57683.184   -78201.102   -917.15672    1533959.3    260.63379 
   69000     321.9245    -69583.84   -57819.195   -77965.564    -900.5484    1533959.3    243.15821 
   69100    302.92727    -69038.37   -57967.975   -75446.364   -781.28897    1533959.3    240.77935 
   69200    307.04369   -68798.569    -57577.74   -74394.369   -751.70809    1533959.3    292.67575 
   69300    305.19366   -68316.813   -57163.593    -72538.17   -687.24794    1533959.3    281.01956 
   69400    302.74462   -67724.355   -56660.634   -69938.722   -593.53429    1533959.3    286.47719 
   69500    303.91611   -67164.896   -56058.363   -66335.181   -459.37668    1533959.3    292.89526 
   69600    308.70742   -66725.658   -55444.029   -63657.512   -367.14502    1533959.3    298.60731 
   69700    315.54315   -66402.091   -54870.651    -61776.19   -308.67951    1533959.3    287.33738 
   69800    319.51782   -66065.311   -54388.618   -59589.035    -232.4601    1533959.3    282.88857 
   69900    314.20307   -65478.656    -53996.19   -57116.412   -139.47482    1533959.3    285.52589 
   70000    313.17663    -64948.34   -53503.384    -54401.38   -40.140633    1533959.3     278.2701 
   70100    316.44409   -64508.268   -52943.904   -51796.257    51.300113    1533959.3    222.19948 
   70200    314.80329   -63876.103   -52371.702   -49146.615     144.1623    1533959.3    272.55527 
   70300    312.65386    -63208.42   -51782.568   -45808.965    267.02177    1533959.3    289.07594 
   70400    320.48584   -62929.607   -51217.538   -44254.336    311.25712    1533959.3    283.79911 
   70500    314.51243   -61986.302    -50492.53   -39994.451    469.26711    1533959.3    285.69451 
   70600    323.18671   -61696.079   -49885.307   -38072.077    528.05476    1533959.3    130.47065 
   70700    320.50872   -60918.413   -49205.508   -34298.686    666.33915    1533959.3    276.98686 
   70800    317.45405   -60098.372   -48497.099   -30355.097    810.95265    1533959.3    282.78139 
   70900     325.7785   -59902.917    -47997.43   -29650.721    820.10307    1533959.3    289.33019 
   71000    319.97193   -59063.666   -47370.378   -25564.081    974.74767    1533959.3    269.39649 
   71100    337.33617   -59521.187   -47193.327   -27489.583    880.76295    1533959.3    246.05868 
   71200    323.96558   -59205.898   -47366.663   -26340.549    939.87322    1533959.3     293.2362 
   71300    327.34678   -60091.306   -48128.506   -31220.354    755.79917    1533959.3    293.36788 
   71400    332.47841   -61020.158   -48869.823   -35561.231    594.89787    1533959.3    292.17055 
   71500    333.30424    -61704.26   -49523.746   -38430.704    495.86212    1533959.3    288.28496 
   71600    323.36548   -61860.576   -50043.271   -40213.532    439.39213    1533959.3    290.81248 
   71700    327.67963   -62585.711   -50610.747   -43599.155    313.42015    1533959.3    287.24253 
   71800    326.65336   -62986.731   -51049.272    -45973.22    226.90092    1533959.3    289.48335 
   71900    326.78023   -63435.749   -51493.653   -48837.677     118.7229    1533959.3    290.14438 
   72000    326.08423   -63820.475   -51903.815   -49780.408    94.916879    1533959.3    286.76551 
   72100    324.59935   -64152.621   -52290.225   -51620.699     29.92801    1533959.3    257.79833 
   72200    326.23489   -64580.162   -52657.996   -54115.292   -65.141532    1533959.3     275.4382 
   72300    328.05382   -65002.023   -53013.384   -55591.153   -115.22701    1533959.3    266.35626 
   72400    322.46264   -65138.368   -53354.058   -56780.286   -153.15339    1533959.3    271.11731 
[...]
  281100    311.80795    -65262.65   -53867.712   -57288.877   -152.92704    1533959.3    239.90414 
  281200    306.36418   -64386.008   -53190.012   -52954.528    10.526224    1533959.3    284.01992 
  281300    305.04782   -63580.363   -52432.472   -49269.129    141.40234    1533959.3     284.2929 
  281400    311.13552   -63028.012   -51657.648   -45098.066    293.21516    1533959.3    295.03921 
  281500    317.71754   -62582.445   -50971.542   -43117.963    351.05723    1533959.3    300.01831 
  281600    312.13745   -61657.978   -50250.999   -38979.826    503.82461    1533959.3    273.11948 
  281700    312.50571   -60811.732   -49391.295   -34306.857    674.27866    1533959.3    288.57276 
  281800     312.6015   -59923.734   -48499.796   -29492.897    849.61377    1533959.3     273.8894 
  281900    318.93696   -59439.881   -47784.415   -28350.895    868.68388    1533959.3     275.0017 
  282000    318.62752   -58715.882   -47071.725   -24483.163    1009.7151    1533959.3    271.56053 
  282100    335.02581   -59079.994   -46836.566   -25885.245    936.52998    1533959.3     272.1978 
  282200    336.34122   -59401.061   -47109.562   -27123.557    893.38007    1533959.3    276.41878 
  282300    329.59124   -59909.701   -47864.877   -29811.723     806.9811    1533959.3    268.60926 
  282400     324.4638   -60427.183   -48569.741   -32737.109    707.72311    1533959.3    261.53968 
  282500     326.7103   -61150.279   -49210.739   -36863.573    551.92182    1533959.3    274.19576 
  282600    322.09486   -61448.725   -49677.855   -38354.429    506.16033    1533959.3    245.29772 
  282700    312.41203   -61330.408   -49913.394   -38286.893    519.70788    1533959.3    256.54569 
  282800    326.38882   -62029.301    -50101.51   -40731.341     418.8492    1533959.3    289.09666 
  282900    309.48004   -61267.819   -49957.954   -38383.055    517.40126    1533959.3    292.50043 
  283000    306.80507   -60304.383   -49092.274   -33550.687    694.71333    1533959.3    287.76399 
  283100    314.01252   -59801.281   -48325.777   -30858.886    780.77497    1533959.3    284.57587 
  283200    317.14459   -59121.245   -47531.281   -27592.583    891.26542    1533959.3    285.23832 
  283300    324.27321   -58752.489   -46902.011   -25338.936    963.87555    1533959.3     290.2269 
  283400    333.85253   -58809.329   -46608.778   -25431.797    946.61704    1533959.3    293.15545 
  283500    319.05465    -58446.14   -46786.374   -23719.304    1031.1045    1533959.3    294.07875 
  283600    329.30203   -59762.095   -47727.841   -30141.162    786.12955    1533959.3    291.55882 
  283700    325.08828   -60288.058   -48407.794   -33286.143    675.94207    1533959.3    288.45785 
  283800    327.43971   -60972.334   -49006.138   -36721.153    549.14229    1533959.3    288.93296 
  283900    315.98554     -60801.4   -49253.793   -37011.934    547.21458    1533959.3    287.98449 
  284000    313.99858   -60726.411   -49251.417   -35642.454    608.32451    1533959.3    281.98727 
  284100    308.82452    -59904.16   -48618.251   -31844.533    749.78993    1533959.3    263.24651 
  284200    313.10581   -59269.638   -47827.271   -29006.819    841.27952    1533959.3     297.8541 
  284300    322.49308   -59031.903    -47246.48   -26518.598    926.54217    1533959.3    294.34704 
  284400    321.36382    -58470.16   -46726.006   -24368.574    999.38355    1533959.3    294.10452 
  284500    332.17358   -58841.391   -46702.197   -25341.424    954.83259    1533959.3    268.19875 
  284600    336.56818   -59526.165   -47226.371   -29157.763    807.67188    1533959.3    218.81072 
  284700    329.38235   -59980.825   -47943.636   -31241.333    746.59764    1533959.3    252.96852 
  284800    325.35633   -60449.431   -48559.372   -34629.153    622.68472    1533959.3    265.42381 
  284900    327.67957   -61102.913   -49127.951   -37058.345    539.51481    1533959.3      280.094 
  285000    332.08389   -61942.807   -49806.891   -41356.106    377.75249    1533959.3    287.56531 
  285100    332.51502   -62598.756   -50447.084   -44416.516    269.56813    1533959.3    206.60823 
  285200    328.45602   -63005.565   -51002.228   -46537.791    199.56159    1533959.3    304.06683 
  285300     323.0455   -63268.631    -51463.02   -48466.289    133.95473    1533959.3    287.07012 
  285400    321.07145   -63518.532   -51785.063   -49322.368    110.08316    1533959.3    296.64261 
  285500    324.09268   -63795.434   -51951.554   -50806.151    51.199826    1533959.3    292.89096 
  285600    321.45202   -63899.044   -52151.667    -51618.23     23.84476    1533959.3    232.70042 
  285700    320.27636   -64118.574    -52414.16    -52547.98   -5.9818005    1533959.3    278.57098 
  285800     299.8768   -63013.805   -52054.888   -47664.615    196.24644    1533959.3    281.52034 
  285900    308.74372   -62637.722   -51354.765   -45612.952    256.66067    1533959.3    281.98575 
  286000    316.27918    -62239.87   -50681.533   -43515.651    320.31695    1533959.3    283.14485 
  286100    315.93552   -61581.527   -50035.748   -39784.563    458.23087    1533959.3    250.37751 
  286200    317.32086   -61014.558   -49418.153   -37157.069    548.07391    1533959.3    300.28487 
  286300    310.11818   -59887.828   -48554.643   -32060.407      737.297    1533959.3    295.75571 
  286400    316.11692   -59376.677   -47824.269   -29284.181    828.74719    1533959.3    297.62077 
  286500    317.29485   -58704.418   -47108.963   -26018.351    942.75629    1533959.3     290.8633 
  286600    331.03579   -58907.679   -46810.065   -26820.407    893.54338    1533959.3    291.59875 
  286700    335.74189   -59121.524   -46851.927   -26634.508    903.72433    1533959.3    288.67941 
  286800    331.86859   -59514.353   -47386.305   -29990.757     777.5859    1533959.3     284.9101 
  286900    330.80552   -60197.029    -48107.83   -33389.871    657.89694    1533959.3    288.18196 
  287000    329.33417   -60753.875   -48718.446   -36073.538    565.23098    1533959.3    281.14614 
  287100    324.81618   -60945.172   -49074.852   -36817.502    547.90699    1533959.3    259.27079 
  287200    310.58318   -60527.989    -49177.81   -36093.273    584.88252    1533959.3    300.06789 
  287300    307.56732   -59705.856   -48465.891    -32152.81    729.19935    1533959.3    298.14437 
  287400    314.35546   -59207.146   -47719.111   -29654.603     807.4886    1533959.3    296.76497 
  287500    317.79624   -58602.589   -46988.811   -25433.124    963.54532    1533959.3    296.79668 
  287600    326.14482   -58435.615    -46516.74   -24212.124    997.02266    1533959.3    252.65796 
  287700    335.95766   -58818.137   -46540.655   -26036.171    916.55625    1533959.3    295.31612 
  287800    333.10193   -59479.566   -47306.446   -30081.659    769.95284    1533959.3    289.97448 
  287900     325.0873   -59787.862   -47907.634   -32928.324     669.5794    1533959.3    292.37625 
  288000    325.06805   -60311.212   -48431.688   -34594.094    618.54434    1533959.3    287.60436 
  288100    332.91212   -61148.691   -48982.507   -37847.228    497.75015    1533959.3    292.99306 
  288200    330.29292   -61659.605    -49589.14   -40366.497    412.25473    1533959.3    298.80175 
  288300    314.40659   -61462.205   -49972.301   -40032.449    444.31419    1533959.3    299.13611 
  288400    328.89703     -61979.2   -49959.747   -42794.568    320.28549    1533959.3    296.32887 
  288500    308.84645   -61073.443   -49786.732   -38844.538    489.11918    1533959.3    297.54729 
  288600    307.55757   -60451.771   -49212.162   -35953.933     592.6466    1533959.3    249.42504 
  288700    310.18519    -59811.89   -48476.256   -33176.176    683.91788    1533959.3    293.14602 
  288800    313.38595   -59170.844   -47718.238   -28667.591    851.56931    1533959.3    285.86197 
  288900      319.072   -58692.979   -47032.579   -26523.014    916.78334    1533959.3    282.79435 
  289000    333.83397   -58862.147   -46662.275   -26364.498    907.31634    1533959.3    284.47724 
  289100    330.71111   -58566.715   -46480.966    -26435.79    896.02506    1533959.3    247.27315 
  289200    334.64051   -59151.033   -46921.686   -27955.848    847.77831    1533959.3    278.23761 
  289300    328.38754     -59577.8   -47576.965   -30749.268    752.20282    1533959.3    289.85084 
  289400    325.58085   -60095.267   -48197.002   -33329.871    664.56495    1533959.3    292.06049 
  289500    326.98585   -60654.452   -48704.842    -36253.91    556.56018    1533959.3    286.49676 
  289600    326.74919   -61132.447   -49191.486   -39263.285    443.79341    1533959.3    264.27122 
  289700    329.35933   -61689.912   -49653.564   -41240.912     376.0479    1533959.3    291.87879 
  289800    335.93618   -62548.258    -50271.56    -45258.52    224.08432    1533959.3    290.76873 
  289900    327.14815    -62788.52   -50832.979   -47048.272    169.17749    1533959.3    285.71105 
  290000    321.24949    -63040.28   -51300.304    -48411.35    129.13706    1533959.3    282.17584 
  290100    324.31965   -63565.629   -51713.454   -50725.509    44.161448    1533959.3    227.08948 
  290200    324.14103   -63872.959   -52027.312   -51762.931    11.817887    1533959.3    292.08347 
  290300    326.57492   -64277.127   -52342.534   -54048.471   -76.255848    1533959.3    297.02052 
  290400    328.41864   -64697.851    -52695.88   -55809.928   -139.19882    1533959.3    292.13534 
  290500    324.46089    -64916.65   -53059.314   -56768.907   -165.81987    1533959.3    288.87804 
  290600    327.77617   -65353.017   -53374.525   -58960.292   -249.68536    1533959.3    224.98505 
  290700    327.88038   -65629.229   -53646.928   -60157.249   -291.01321    1533959.3    288.28397 
  290800    325.81145   -65820.765   -53914.073   -61295.873   -329.96855    1533959.3    284.82729 
  290900    325.65043   -66065.584   -54164.777   -62334.588   -365.19285    1533959.3    284.31545 
  291000    327.28113   -66337.381    -54376.98   -63602.946   -412.40329    1533959.3    285.27091 
  291100     320.8348   -66378.354   -54653.532   -64054.881   -420.24296    1533959.3    281.44289 
  291200    325.15523   -66632.331   -54749.621   -64664.419   -443.19428    1533959.3    299.31328 
  291300    322.40159   -66686.969    -54904.89   -64804.596   -442.51967    1533959.3    306.20096 
  291400    324.87471   -66933.031   -55060.572   -66408.805   -507.26922    1533959.3    307.70084 
  291500    325.94785   -67143.204   -55231.527   -66781.639   -516.29327    1533959.3    301.67535 
  291600    322.16512   -67096.839   -55323.401   -66889.669   -517.01545    1533959.3    169.86297 
  291700    327.82892    -67335.18    -55354.76   -67739.293   -553.59214    1533959.3    301.78475 
  291800    328.06823   -67551.063   -55561.898    -68693.92   -587.00511    1533959.3    301.21281 
  291900    329.24083   -67771.394   -55739.376   -69268.261   -604.74499    1533959.3    299.56896 
  292000    317.28899   -67616.298   -56021.057   -69041.224   -582.00515    1533959.3    289.41643 
  292100    327.03147   -68034.374   -56083.097   -70908.649   -662.70638    1533959.3    231.52382 
  292200    323.15811   -68094.462   -56284.735    -71667.26   -687.60322    1533959.3      293.293 
  292300    327.10471   -68360.268   -56406.315   -72812.792   -733.37418    1533959.3    296.96837 
  292400      325.873   -68495.606   -56586.665   -72795.096   -724.52146    1533959.3    302.33598 
  292500    325.88731   -68641.673   -56732.209     -73940.3   -769.20654    1533959.3    297.02136 
  292600    329.78946   -68914.924   -56862.857   -74799.528   -801.77428    1533959.3    194.35899 
  292700    328.46627    -69097.14   -57093.429   -75152.393   -807.24079    1533959.3    304.12504 
  292800    327.58822   -69301.121   -57329.498    -76558.98   -859.56331    1533959.3    302.64707 
  292900    325.82753   -69402.606   -57495.327   -77651.844   -901.00204    1533959.3    304.01879 
  293000    323.92397   -69416.026   -57578.311   -77669.559   -898.08447    1533959.3    302.23446 
  293100    322.99165   -69469.751   -57666.108   -78014.999   -909.60119    1533959.3    177.45473 
  293200    321.72446   -69522.145   -57764.811   -78240.141   -915.25304    1533959.3    296.80802 
  293300    304.06609   -69044.756   -57932.743   -76379.783    -824.5879    1533959.3     308.4934 
  293400    311.86326   -68951.794   -57554.835   -75677.317   -810.08004    1533959.3    308.45256 
  293500     305.0108   -68395.298    -57248.76   -73040.413   -705.89135    1533959.3    306.01442 
  293600    303.06206   -67880.717   -56805.396   -70854.888   -628.01628    1533959.3     242.8257 
  293700    304.82433   -67416.046   -56276.323   -68214.201   -533.62653    1533959.3    252.96409 
  293800    304.81199    -66825.23   -55685.958   -64542.325   -395.88209    1533959.3     276.9715 
  293900    299.80416   -65994.777   -55038.514   -61177.234    -274.4025    1533959.3    279.20016 
  294000    307.81502   -65590.127    -54341.11   -59014.582   -208.90552    1533959.3    254.62925 
  294100    314.89304   -65185.758   -53678.076    -56345.27   -119.22432    1533959.3    262.57742 
  294200    314.53683   -64514.454    -53019.79   -53206.077   -8.3270774    1533959.3    291.40832 
  294300    317.59254    -64017.21   -52410.876   -50897.333    67.655787    1533959.3    295.64106 
  294400    312.21884   -63183.072   -51773.118   -46558.305    233.10361    1533959.3    297.30411 
  294500    317.16673   -62706.236   -51115.463   -44037.623    316.38146    1533959.3    299.93378 
  294600    320.56835   -62279.738   -50564.654    -42030.46    381.48086    1533959.3     274.0356 
  294700    321.88386   -61874.221   -50111.062   -39069.347    493.56778    1533959.3    290.60313 
  294800    328.78946   -61808.545   -49793.022   -38613.772    499.71565    1533959.3    290.14438 
  294900    333.41814   -61989.942   -49805.265   -39616.993    455.41864    1533959.3    291.04959 
  295000    336.41935    -62777.95   -50483.595   -43832.398    297.31036    1533959.3    288.05154 
  295100    330.60842   -63284.489   -51202.494   -45561.202    252.16735    1533959.3    239.21386 
  295200    325.83535   -63703.915   -51796.349    -48832.71    132.47552    1533959.3     283.1418 
  295300    327.73024   -64210.732   -52233.919   -51302.453    41.636763    1533959.3    278.68815 
  295400    321.98228   -64454.162   -52687.406   -53003.276   -14.119474    1533959.3    281.36831 
  295500    327.85828   -65095.491   -53113.998   -55767.367   -118.60636    1533959.3    272.03044 
  295600    327.34395    -65366.85   -53404.153   -57546.854   -185.17992    1533959.3    293.02233 
  295700    328.41939   -65713.477   -53711.479   -58891.254    -231.5374    1533959.3    294.51176 
  295800    324.94317   -65913.502   -54038.541   -60201.925   -275.50504    1533959.3    293.26285 
  295900    320.73567    -66036.29   -54315.091   -61462.664   -319.49854    1533959.3    291.40244 
  296000    321.04389   -66250.199   -54517.736   -61856.409   -328.04074    1533959.3    288.57613 
  296100    324.60793   -66579.789    -54717.08   -63636.195   -398.68697    1533959.3    275.46913 
  296200      325.489   -66786.072   -54891.164   -64604.262   -434.17821    1533959.3    302.07838 
  296300    301.88406    -65866.45   -54834.178   -60807.335   -267.00181    1533959.3    294.85565 
  296400    308.16896   -65455.693   -54193.741   -58441.979   -189.89742    1533959.3    289.16602 
  296500    306.81403   -64754.847   -53542.411   -54454.078   -40.751771    1533959.3    287.73832 
  296600    309.18779   -64160.891   -52861.706    -51799.58    47.477351    1533959.3    234.22052 
  296700    310.11567   -63525.319   -52192.225   -48738.774    154.37027    1533959.3    288.98572 
  296800    313.63717   -63001.636    -51539.85   -45749.434    258.83325    1533959.3    292.62001 
  296900    321.95933   -62704.204   -50938.287   -43902.026    314.52287    1533959.3    285.35243 
  297000    318.07194   -61985.304    -50361.45   -39979.052    464.09616    1533959.3    285.97248 
  297100    314.63917   -61195.917   -49697.514   -36795.269    576.73396    1533959.3     237.1106 
  297200    312.83408   -60351.144   -48918.706   -32745.473    722.94812    1533959.3    289.75092 
  297300    319.25267   -59945.766   -48278.763    -29700.48    830.45448    1533959.3    289.23901 
  297400    317.44604   -59147.833   -47546.852   -26198.633    954.27145    1533959.3    286.11645 
  297500    323.06768   -58797.619   -46991.198   -25238.123     972.3686    1533959.3    285.22125 
  297600    334.54533   -58948.209    -46722.34   -25690.875    940.11243    1533959.3    253.20232 
  297700    337.73388   -59437.165   -47094.771   -27393.503    880.65229    1533959.3    284.48785 
  297800    331.87146   -59969.128   -47840.974   -30410.334    779.15455    1533959.3     273.3637 
  297900    330.54004   -60619.693   -48540.196   -34592.671    623.45836    1533959.3    282.91739 
  298000    324.93293   -60983.403   -49108.816   -36043.221    584.03582    1533959.3    280.57816 
  298100    324.83235   -61496.146   -49625.235   -39177.041    467.03723    1533959.3    277.67046 
  298200    326.51736   -62055.841   -50123.352   -41540.074    383.67495    1533959.3    296.35253 
  298300    332.35304   -62824.119   -50678.366   -45071.886    250.61125    1533959.3    290.99043 
  298400    329.36412   -63259.177   -51222.653   -47460.949    168.14925    1533959.3    284.79151 
  298500    324.57674   -63565.091   -51703.522   -49930.614     79.24948    1533959.3    290.24377 
  298600    326.62821   -64023.043   -52086.503   -52177.482   -4.0668173    1533959.3    291.08272 
  298700    327.57647   -64410.441   -52439.247   -53055.805   -27.560336    1533959.3    290.74333 
  298800    324.70361   -64624.158   -52757.952   -53936.745   -52.692362    1533959.3    289.05243 
  298900    320.87007   -64794.633   -53068.523   -55739.644   -119.39984    1533959.3     292.2019 
  299000    325.28986   -65180.561    -53292.93   -57462.093   -186.36277    1533959.3    284.53398 
  299100    320.29906   -65246.338   -53541.095   -57602.059   -181.52625    1533959.3    228.85491 
  299200    327.47576   -65692.017   -53724.504   -59602.881   -262.76515    1533959.3    289.87428 
  299300    325.97077   -65893.112   -53980.598   -60634.987   -297.45308    1533959.3    297.29084 
  299400    327.78001   -66145.926   -54167.294   -61650.261   -334.49075    1533959.3    293.51076 
  299500     331.3533   -66462.477    -54353.26   -62330.582   -356.58855    1533959.3      294.257 
  299600    334.79823   -66869.651   -54634.539   -64463.675   -439.36515    1533959.3    251.74595 
  299700    327.26653   -66991.945   -55032.078   -65916.626   -486.54235    1533959.3    299.27655 
  299800    324.86308   -67175.948   -55303.914   -66463.991    -498.8586    1533959.3    298.85178 
  299900    324.90977   -67392.462   -55518.722   -67171.326   -520.87471    1533959.3     297.2881 
  300000    322.76801   -67542.677   -55747.207    -68189.38   -556.16865    1533959.3    253.86191 
Loop time of 1076.05 on 8 procs for 300000 steps with 12261 atoms

Pair  time (%) = 736.227 (68.4194)
Bond  time (%) = 15.6006 (1.44981)
Neigh time (%) = 122.854 (11.4172)
Comm  time (%) = 166.556 (15.4785)
Outpt time (%) = 1.41918 (0.131888)
Other time (%) = 33.392 (3.10321)

Nlocal:    1532.62 ave 1642 max 1435 min
Histogram: 2 2 0 0 0 0 0 1 2 1
Nghost:    3483.5 ave 3572 max 3383 min
Histogram: 1 1 2 0 0 0 0 1 1 2
Neighs:    69441.1 ave 76947 max 62440 min
Histogram: 1 1 2 0 0 0 1 1 1 1

Total # of neighbors = 555529
Ave neighs/atom = 45.3086
Ave special neighs/atom = 0.69978
Neighbor list builds = 30000
Dangerous builds = 29997
#       steps nevery T0 fixname seed1 seed2 EX_flag $w_list-of-walkers

