LAMMPS (10 Jun 2014)
Processor partition = 1
# ------------------------------- Initialization Section --------------------
units           real
atom_style      full
include         "system.in.init"
    bond_style      hybrid harmonic
    angle_style     hybrid cosine/squared
    #pair_style      hybrid lj/gromacs/coul/gromacs 9 12 0.000001 12
    pair_style      hybrid lj/gromacs/coul/gromacs 9 12 0.000001 12
    special_bonds   lj/coul 0 1 1
    neigh_modify    every 10
     dielectric      15
     pair_style      hybrid lj/gromacs/coul/gromacs 9 12 0.000001 12
     dielectric      15
     pair_style      hybrid lj/gromacs/coul/gromacs 9 12 0.000001 12

# ------------------------------- Atom Definition Section -------------------

# Read the coordinates generated by an earlier simulation

#read_data       "system.data"
#read_data       "system_after_min.data"
read_data       "system_after_npt.data"
  orthogonal box = (-7.02847 -7.02327 13.3246) to (104.528 104.451 136.675)
  2 by 2 by 2 MPI processor grid
  reading atoms ...
  12261 atoms
  reading velocities ...
  12261 velocities
  scanning bonds ...
  2 = max bonds/atom
  scanning angles ...
  2 = max angles/atom
  reading bonds ...
  4290 bonds
  reading angles ...
  3120 angles
  3 = max # of 1-2 neighbors
  3 = max # of special neighbors

# ------------------------------- Settings Section --------------------------

include         system.in.settings
    pair_coeff 2 2 lj/gromacs/coul/gromacs  0.8365200764818 4.7
    pair_coeff 2 3 lj/gromacs/coul/gromacs  1.0755258126195 4.7
    pair_coeff 2 4 lj/gromacs/coul/gromacs  0.9560229445507 4.7
    pair_coeff 2 5 lj/gromacs/coul/gromacs  0.4780114722753 6.2
    pair_coeff 3 3 lj/gromacs/coul/gromacs  1.1950286806883 4.7
    pair_coeff 3 4 lj/gromacs/coul/gromacs  0.9560229445507 4.7
    pair_coeff 3 5 lj/gromacs/coul/gromacs  0.4780114722753 6.2
    pair_coeff 4 4 lj/gromacs/coul/gromacs  0.9560229445507 4.7
    pair_coeff 4 5 lj/gromacs/coul/gromacs  0.6453154875717 4.7
    pair_coeff 5 5 lj/gromacs/coul/gromacs  0.8365200764818 4.7
    bond_coeff 1           harmonic              1.4937858508604 4.7
    bond_coeff 2        harmonic              1.4937858508604 3.7
    angle_coeff  1       cosine/squared        2.9875717017208 180
    angle_coeff  2       cosine/squared        2.9875717017208 120
    pair_coeff 1 1  lj/gromacs/coul/gromacs  1.1950286806883 4.7
    pair_coeff 6 6  lj/gromacs/coul/gromacs  1.1950286806883 4.7
pair_coeff 1 2 lj/gromacs/coul/gromacs 1.3384321223709 4.7
pair_coeff 1 3 lj/gromacs/coul/gromacs 1.3384321223709 4.7
pair_coeff 1 4 lj/gromacs/coul/gromacs 0.9560229445507 4.7
pair_coeff 1 5 lj/gromacs/coul/gromacs 0.4780114722753 4.7
pair_coeff 1 6 lj/gromacs/coul/gromacs 1.3384321223709 5.7
pair_coeff 2 6 lj/gromacs/coul/gromacs 1.3384321223709 4.7
pair_coeff 3 6 lj/gromacs/coul/gromacs 1.3384321223709 4.7
pair_coeff 4 6 lj/gromacs/coul/gromacs 0.9560229445507 4.7
pair_coeff 5 6 lj/gromacs/coul/gromacs 0.4780114722753 4.7

# ------------------------------- Run Section -------------------------------
# -- simulation protocol --
# Define variables
variable tlo world 200 210
variable thi world 500 510
#variable w world ZZZ # order of walkers from last output, replace in submission script with latest order from output

timestep        30.0    # (40.0 should be possible for lipid systems)
thermo          100
thermo_style    custom step temp pe etotal enthalpy press vol spcpu

# Continue the simulation at constant volume (NVT) at 323K.
dump     id2 all dcd 1000 dcd/restmd-${tlo}-${thi}.dcd
dump     id2 all dcd 1000 dcd/restmd-210-${thi}.dcd
dump     id2 all dcd 1000 dcd/restmd-210-510.dcd
dump_modify id2 unwrap yes
fix      fxnvt all nvt temp 323 323 3000.0



# STMD
fix     fxstmd all stmd 50000 1.5 ${tlo} ${thi} -80000 -20000 256 10000 500000 323 10000 1 1
fix     fxstmd all stmd 50000 1.5 210 ${thi} -80000 -20000 256 10000 500000 323 10000 1 1
fix     fxstmd all stmd 50000 1.5 210 510 -80000 -20000 256 10000 500000 323 10000 1 1
#       fixname all stmd RSTFRQ finit Tlo Thi Ulo Uhi binsize TSC1 TSC2 T0 PRTFRQ RE_flag OREST_flag

restart     100000 restart/${tlo}-${thi}.*.restart
restart     100000 restart/210-${thi}.*.restart
restart     100000 restart/210-510.*.restart

# Replica Exchange run
restmd  300000 500 323 fxstmd 0 12345 1
RESTMD: nReplica= 2  walker= 1
STMD Check initial values...
STMD STG= 2 N= 236  bin= 256
STMD Ynew(Y2)=  0.650155 0.650155 0.650155 0.650155 0.650155 0.650155 0.650155 0.650155 0.650155 0.650155 0.650155 0.650155 0.650155 0.650155 0.650155 0.650155 0.650155 0.650155 0.650155 0.650155 0.650155 0.650155 0.650155 0.650155 0.650155 0.650155 0.650155 0.650155 0.650155 0.650155 0.650155 0.650155 0.650155 0.650155 0.650155 0.650155 0.650155 0.650155 0.650155 0.650155 0.650155 0.650155 0.650155 0.650155 0.650155 0.658633 0.686565 0.736407 0.722503 0.755349 0.730444 0.749966 0.795812 0.819040 0.843102 0.881967 0.891935 0.905364 0.920544 0.951050 0.981354 1.006382 1.017737 1.051641 1.081360 1.077669 1.092588 1.152415 1.128723 1.164101 1.189319 1.205211 1.235879 1.250567 1.278421 1.304842 1.321225 1.345151 1.368476 1.398794 1.409725 1.428868 1.428868 1.480812 1.416049 1.498383 1.503736 1.569137 1.578947 1.578947 1.578947 1.578947 1.578947 1.578947 1.578947 1.578947 1.578947 1.578947 1.578947 1.578947 1.578947 1.578947 1.578947 1.578947 1.578947 1.578947 1.578947 1.578947 1.578947 1.578947 1.578947 1.578947 1.578947 1.578947 1.578947 1.578947 1.578947 1.578947 1.578947 1.578947 1.578947 1.578947 1.578947 1.578947 1.578947 1.578947 1.578947 1.578947 1.578947 1.578947 1.578947 1.578947 1.578947 1.578947 1.578947 1.578947 1.578947 1.578947 1.578947 1.578947 1.578947 1.578947 1.578947 1.578947 1.578947 1.578947 1.578947 1.578947 1.578947 1.578947 1.578947 1.578947 1.578947 1.578947 1.578947 1.578947 1.578947 1.578947 1.578947 1.578947 1.578947 1.578947 1.578947 1.578947 1.578947 1.578947 1.578947 1.578947 1.578947 1.578947 1.578947 1.578947 1.578947 1.578947 1.578947 1.578947 1.578947 1.578947 1.578947 1.578947 1.578947 1.578947 1.578947 1.578947 1.578947 1.578947 1.578947 1.578947 1.578947 1.578947 1.578947 1.578947 1.578947 1.578947 1.578947 1.578947 1.578947 1.578947 1.578947 1.578947 1.578947 1.578947 1.578947 1.578947 1.578947 1.578947 1.578947 1.578947 1.578947 1.578947 1.578947 1.578947 1.578947 1.578947 1.578947 1.578947 1.578947 1.578947 1.578947 1.578947 1.578947 1.578947 1.578947 1.578947 1.578947 1.578947 1.578947 1.578947 1.578947 1.578947 1.578947 1.578947 1.578947 1.578947 1.578947 1.578947
RESTMD STAGE 2
RESTMD STG2: istep= 0  TSC2= 500000
RESTMD STG2: f= 1.500000  df= 0.000792
RESTMD STG2: STG= 2
Memory usage per processor = 6.6755 Mbytes
Step Temp PotEng TotEng Enthalpy Press Volume S/CPU 
       0    322.41283   -64538.051   -52755.561   -52599.468     6.977405    1533959.3            0 
     100     314.3268   -64108.345   -52621.357   -50819.671    80.535862    1533959.3     267.5973 
     200    310.36531   -63573.957    -52231.74   -48413.632     170.6705    1533959.3    291.95376 
     300    311.05073    -63090.38   -51723.115   -45900.034    260.29337    1533959.3    292.60204 
     400     310.8161   -62514.236   -51155.546   -43272.023     352.3957    1533959.3    279.27973 
     500    315.95721   -62129.145   -50582.574   -41281.254    415.77162    1533959.3    271.28653 
     600    317.95739   -61612.036   -49992.369   -38209.344    526.70453    1533959.3    208.78652 
     700    315.01525   -60826.689   -49314.541   -34787.017    649.38445    1533959.3    277.04211 
     800    313.80434   -60072.635    -48604.74   -31192.974    778.31085    1533959.3    292.19945 
     900     312.9368   -59307.703   -47871.511   -27450.524    912.82391    1533959.3    291.72896 
    1000    319.51821   -58982.019   -47305.312   -26538.999    928.26003    1533959.3      286.967 
    1100    324.00697   -58686.403   -46845.655   -24473.772    1000.0295    1533959.3    224.31184 
    1200    329.37729   -58619.603   -46582.598   -24004.029    1009.2684    1533959.3    284.41725 
    1300    339.24962   -59521.538   -47123.752   -28390.848    837.36612    1533959.3    282.52272 
    1400    333.96994     -60025.2   -47820.359   -31343.096    736.53832    1533959.3    283.91015 
    1500    331.53623    -60608.58   -48492.678   -33929.696     650.9694    1533959.3    291.42978 
    1600    332.32149   -61278.584   -49133.984   -37592.198    515.92114    1533959.3    190.46638 
    1700    330.20654   -61609.996   -49542.687   -39253.841    459.91432    1533959.3    291.67013 
    1800    324.40772   -61792.514   -49937.121   -39866.338    450.16685    1533959.3    292.67922 
    1900    322.94704   -62241.629   -50439.616   -42277.106    364.86653    1533959.3      293.317 
    2000    322.62722   -62692.252   -50901.927   -45051.326    261.52355    1533959.3     287.4977 
    2100    325.94179   -63219.648   -51308.193    -47487.01    170.80795    1533959.3    203.68342 
    2200    326.18348   -63611.031   -51690.743   -49431.529    100.98752    1533959.3    304.62157 
    2300    326.72578   -64003.522   -52063.417   -51553.688    22.785016    1533959.3    298.92249 
    2400    323.59998   -64150.602   -52324.727   -51973.282    15.709728    1533959.3    298.31232 
    2500     329.7506   -64773.429   -52722.782   -54415.918   -75.683652    1533959.3    299.67042 
    2600    323.46443   -64948.993   -53128.073   -56277.516   -140.78099    1533959.3    229.47519 
    2700    326.69089   -65435.326   -53496.495   -58402.662   -219.30705    1533959.3    293.94128 
    2800    324.78156   -65735.572   -53866.517   -59208.713   -238.79764    1533959.3    296.34981 
    2900    324.77714   -66071.876   -54202.983   -61193.523   -312.47915    1533959.3    294.95311 
    3000    328.82615   -66520.658   -54503.794   -63671.435   -409.79613    1533959.3     282.3487 
    3100    331.01702   -66945.447   -54848.519   -65632.297   -482.03794    1533959.3    200.95006 
    3200    339.83893   -67573.383    -55154.06   -68187.345   -582.59152    1533959.3    298.24317 
    3300    329.93115   -67728.839   -55671.593    -68721.69   -583.34301    1533959.3    291.59105 
    3400    327.58152   -68031.802   -56060.423   -70375.614   -639.89307    1533959.3    245.05122 
    3500    321.60941   -68200.251   -56447.122   -71646.423   -679.41309    1533959.3    269.45897 
    3600    331.96445   -68732.757   -56601.206   -73423.139   -751.94519    1533959.3    210.25629 
    3700     327.5816   -68925.455   -56954.074   -74913.872   -802.80807    1533959.3    280.57722 
    3800     320.3498   -68982.494   -57275.397   -75258.886   -803.86704    1533959.3    291.20903 
    3900    320.91274   -69060.587   -57332.918   -75206.368   -798.94829    1533959.3    294.13505 
    4000    305.38954   -68499.605   -57339.226   -73293.927   -713.17967    1533959.3     298.0448 
    4100     310.6161     -68241.7   -56890.318    -71480.02   -652.16378    1533959.3    267.53909 
    4200    315.01326   -67979.673   -56467.598    -69876.22    -599.3692    1533959.3     296.0043 
    4300    316.34157   -67631.898    -56071.28   -68049.485   -535.42912    1533959.3    291.64803 
    4400    317.04033   -67284.164    -55698.01   -65836.891   -453.21083    1533959.3    289.06996 
    4500    321.98501   -67114.316    -55347.46   -65318.786   -445.72109    1533959.3    271.97505 
    4600    317.60803    -66696.31    -55089.41   -63480.906   -375.10224    1533959.3    276.87405 
    4700    316.11862     -66278.9    -54726.43   -60844.465   -273.47791    1533959.3     286.1836 
    4800    315.45072   -65850.735   -54322.674   -59211.373   -218.52627    1533959.3     257.7405 
    4900    318.43676   -65517.342   -53880.157   -57745.817   -172.79612    1533959.3    260.70264 
    5000    317.20093   -65008.049   -53416.027   -54717.259   -58.165459    1533959.3    252.19142 
    5100    320.18037   -64644.715    -52943.81   -52456.044    21.803256    1533959.3    279.23845 
    5200    317.57715   -64088.071   -52482.299   -50792.845     75.51909    1533959.3    281.79649 
    5300    317.11797   -63599.881    -52010.89   -47793.115    188.53572    1533959.3    284.43519 
    5400    312.23024   -62809.131   -51398.761   -44215.211    321.10671    1533959.3    247.13022 
    5500     311.5127    -62150.58   -50766.432   -40986.103     437.1835    1533959.3    295.27433 
    5600    311.89181   -61500.361   -50102.358   -37920.263    544.54312    1533959.3    291.50695 
    5700    313.03243   -60898.876    -49459.19   -35254.826    634.93906    1533959.3    284.78996 
    5800    320.04955   -60537.959   -48841.835    -33344.25    692.74641    1533959.3    272.61993 
    5900    317.84667   -59834.551    -48218.93   -30026.511    813.20627    1533959.3    279.72265 
    6000    316.50107   -59125.814   -47559.367   -26683.258    933.16801    1533959.3    282.85652 
    6100    316.53321   -58453.625   -46886.004   -23624.699    1039.7869    1533959.3    277.62985 
    6200    330.49159   -58662.883   -46585.157   -24049.892    1007.3327    1533959.3    296.77379 
    6300    335.59182   -59098.473    -46834.36   -26595.207    904.69588    1533959.3    295.94457 
    6400    333.83561   -59743.054   -47543.122   -29909.238    788.23958    1533959.3    294.31936 
    6500    328.72359   -60207.715     -48194.6   -32894.227    683.93099    1533959.3    290.78566 
    6600    327.62512   -60741.943   -48768.971    -34950.41    617.69363    1533959.3    235.34946 
    6700     325.9908   -61236.258   -49323.011   -37875.977     511.6857    1533959.3    288.78953 
    6800    327.50389   -61802.114   -49833.573   -40676.731    409.31342    1533959.3    290.01899 
    6900     333.5827   -62547.506   -50356.816   -43142.526    322.48077    1533959.3    289.38688 
    7000    324.57637   -62632.736    -50771.18   -45008.607    257.58865    1533959.3    279.75716 
    7100    328.49552   -63210.303   -51205.522    -47413.66     169.4973    1533959.3    275.73045 
    7200    327.33883   -63567.174   -51604.664   -49173.696    108.66498    1533959.3    305.68969 
    7300     330.7204   -64036.395   -51950.307   -51354.883     26.61561    1533959.3    308.02511 
    7400    329.36456   -64393.981   -52357.442   -52867.379    -22.79434    1533959.3    304.22784 
    7500    328.78203   -64773.322   -52758.071   -54844.735   -93.274467    1533959.3    297.06827 
    7600    330.36988   -65196.633   -53123.355   -56276.325   -140.93866    1533959.3    235.66948 
    7700    321.00397   -65257.776   -53526.772   -57053.683    -157.6539    1533959.3    287.91648 
    7800    327.26031    -65825.25    -53865.61   -59996.684   -274.06074    1533959.3    293.90235 
    7900    329.44512   -66239.426   -54199.943   -61797.562   -339.61573    1533959.3    299.55463 
    8000    330.76496   -66610.653   -54522.936   -63226.708   -389.06105    1533959.3    287.40413 
    8100    332.53463   -67013.666   -54861.277   -65901.446    -493.4987    1533959.3    240.46323 
    8200    333.98801   -67421.846   -55216.344   -67437.446   -546.28671    1533959.3    292.43965 
    8300    332.68556   -67771.649   -55613.744   -68934.812   -595.45552    1533959.3    296.05424 
    8400    325.78827   -67930.943   -56025.098   -70601.699   -651.57818    1533959.3    292.27703 
    8500    328.62738   -68330.676   -56321.077   -71635.566   -684.56198    1533959.3    289.17779 
    8600    325.54514   -68532.009   -56635.049   -72680.788   -717.24908    1533959.3    277.70926 
    8700    326.73693   -68799.141   -56858.628   -74305.264   -779.86955    1533959.3    256.09363 
    8800    324.21458    -68988.18   -57139.845   -75466.372   -819.20095    1533959.3    280.93768 
    8900     318.3844   -69015.465   -57380.192   -75541.532   -811.81704    1533959.3    275.03056 
    9000    309.07601   -68744.289   -57449.189   -74687.116   -770.54021    1533959.3    260.99562 
    9100    306.97883   -68307.229    -57088.77   -72108.595    -671.3904    1533959.3    253.63011 
    9200    313.47337   -68072.301   -56616.501   -70764.441    -632.4169    1533959.3    293.55822 
    9300    319.30355   -67834.265   -56165.402   -68758.727    -562.9252    1533959.3    294.30201 
    9400     320.1429   -67482.291   -55782.755   -66917.207   -497.71316    1533959.3    264.04097 
    9500    312.49665   -66872.341   -55452.235   -64732.619   -414.83578    1533959.3    272.26812 
    9600     318.7863   -66715.944   -55065.985   -62908.442   -350.56007    1533959.3    274.10491 
    9700    317.29336   -66298.348   -54702.947   -60937.862   -278.70246    1533959.3     279.4552 
    9800    320.93102   -66025.116   -54296.778    -59981.48   -254.10779    1533959.3    287.93625 
    9900    315.22829   -65385.311   -53865.378   -56780.043   -130.28639    1533959.3    293.10833 
   10000    314.27079   -64896.104   -53411.162   -54204.108     -35.4449    1533959.3    290.15362 
   10100    322.57816   -64746.599   -52958.066   -53023.583   -2.9286258    1533959.3    274.51628 
   10200    316.58873   -64073.988   -52504.338   -50263.369    100.17195    1533959.3    298.35709 
   10300     320.6493   -63741.154   -52023.112   -48738.426     146.8264    1533959.3    300.33712 
   10400    317.26114   -63035.118   -51440.895   -45412.921    269.45217    1533959.3    295.09941 
   10500    317.58456   -62408.687   -50802.644    -41983.79    394.20529    1533959.3    295.21593 
   10600    313.48599   -61566.127   -50109.866   -37940.032    543.99503    1533959.3    269.10076 
   10700    315.86575   -61022.599    -49479.37   -35020.669      646.308    1533959.3    291.65147 
   10800    316.19156   -60325.555    -48770.42    -31489.68    772.45397    1533959.3    292.79589 
   10900     318.9603   -59768.092   -48111.774   -28546.586    874.56943    1533959.3    290.40132 
   11000    321.92843   -59248.405   -47483.617   -26666.093    930.54921    1533959.3    274.42288 
   11100    319.69778   -58559.966   -46876.697   -23221.732    1057.3836    1533959.3    259.19229 
   11200    319.56154   -58059.393   -46381.102    -20750.53    1145.6938    1533959.3    290.43168 
   11300    332.70511   -58640.664   -46482.045   -23047.737    1047.5202    1533959.3    294.54734 
   11400    340.26692   -59706.955   -47271.992   -27936.245    864.31338    1533959.3    286.93579 
   11500    332.27596   -60128.078   -47985.142   -30917.263      762.939    1533959.3    285.15377 
   11600    331.58641   -60798.106   -48680.369   -34284.355    643.50589    1533959.3    265.38854 
   11700    327.56026   -61120.207   -49149.605   -36030.501    586.42767    1533959.3    288.33649 
   11800    325.10259    -61540.99   -49660.203   -38022.838    520.19352    1533959.3    288.76129 
   11900    327.10483   -62054.451   -50100.493   -40423.208    432.57736    1533959.3    292.20963 
   12000    326.86239    -62482.65   -50537.552   -43535.749    312.98256    1533959.3    288.10555 
   12100     325.4953    -62852.87   -50957.732   -45062.598    263.51417    1533959.3    222.01059 
   12200     327.6517   -63291.482   -51317.539   -47181.131    184.89859    1533959.3    288.65358 
   12300    325.86205   -63610.521    -51701.98   -49161.855    113.54434    1533959.3    295.78616 
   12400    330.38377   -64141.983   -52068.197   -51269.516    35.701281    1533959.3    297.22448 
   12500    320.33711   -64158.527   -52451.893   -52045.498     18.16598    1533959.3    293.95694 
   12600     327.2231   -64762.981   -52804.701   -54627.696   -81.488416    1533959.3    273.39132 
   12700    328.47117    -65190.03   -53186.139   -57116.606   -175.69299    1533959.3    293.53582 
   12800    324.83972   -65427.762   -53556.582   -56939.906   -151.23552    1533959.3    293.66407 
   12900    333.84816   -66075.461    -53875.07   -60204.146   -282.91149    1533959.3    296.61282 
   13000    329.55069   -66329.411    -54286.07   -62238.716    -355.4855    1533959.3    292.44556 
   13100    328.26439   -66659.329   -54662.995   -63908.852   -413.29244    1533959.3    278.05039 
   13200    334.35792   -67190.968   -54971.948   -65848.928   -486.20409    1533959.3    298.25101 
   13300    329.81745    -67426.31    -55373.22   -66938.451   -516.96911    1533959.3    295.15423 
   13400    331.92585   -67832.138   -55701.997   -69281.886   -607.02488    1533959.3    290.94037 
   13500    331.91829   -68181.449   -56051.584    -70716.28   -655.51606    1533959.3    287.19612 
   13600      325.351   -68328.627   -56438.762   -71674.399   -681.03726    1533959.3     267.5164 
   13700    324.19633   -68584.916   -56737.248   -73106.069   -731.69093    1533959.3    293.62028 
   13800    329.79221   -68983.329   -56931.161   -74614.014   -790.42854    1533959.3    289.00563 
   13900    324.12362   -69095.655   -57250.644   -75444.634    -813.2765    1533959.3    298.12657 
   14000    320.40424   -69138.413   -57429.327   -75559.468   -810.42244    1533959.3    288.69193 
   14100    322.02877   -69230.006   -57461.552   -76178.997   -836.67509    1533959.3    272.77986 
   14200    306.01984   -68729.778   -57546.366   -74062.339    -738.2687    1533959.3    279.09798 
   14300    312.17054   -68534.169   -57125.981   -73287.249   -722.41327    1533959.3    292.96481 
   14400    312.04546   -68126.519   -56722.902   -70768.941   -627.86192    1533959.3    281.38493 
   14500     312.9466   -67746.406   -56309.857   -68333.969   -537.48123    1533959.3    283.29326 
   14600    322.05252   -67619.682    -55850.36   -67901.069   -538.67012    1533959.3    269.85389 
   14700    322.10288    -67232.78   -55461.617   -65717.548   -458.44302    1533959.3    262.62987 
   14800    320.16788   -66841.661   -55141.212   -63344.145   -366.67344    1533959.3    280.40428 
   14900    316.51123   -66370.476   -54803.659   -61372.513   -293.62965    1533959.3    280.53556 
   15000    314.38234   -65891.095   -54402.077   -58756.682   -194.65207    1533959.3    266.91443 
   15100    316.17536   -65534.418   -53979.874   -56840.396   -127.86612    1533959.3    244.38457 
   15200    317.57953    -65142.22   -53536.361   -55093.646   -69.611081    1533959.3    267.11977 
   15300    317.74458   -64668.742   -53056.851   -52738.161    14.245539    1533959.3    276.62515 
   15400    314.99566   -64065.972    -52554.54   -49107.213    154.09651    1533959.3    286.19922 
   15500    310.25934   -63314.497   -51976.153   -46083.126    263.41995    1533959.3    282.64475 
   15600    314.33759   -62864.748   -51377.366   -43947.754    332.10574    1533959.3    278.57468 
   15700    313.66132   -62183.763   -50721.094   -40688.982    448.43823    1533959.3    265.21972 
   15800     312.4218       -61429    -50011.63   -37249.969    570.44985    1533959.3    245.25254 
   15900    323.53118   -61233.797   -49410.437   -36079.622    595.89121    1533959.3    242.91894 
   16000    314.38256   -60111.229   -48622.203   -30190.446    823.90476    1533959.3    254.21164 
   16100    314.54967   -59371.582   -47876.449   -26847.416    940.00374    1533959.3    255.06483 
   16200    315.76175   -58725.368    -47185.94   -23865.398    1042.4348    1533959.3    270.78562 
   16300    318.57015   -58291.641    -46649.58    -21430.31    1127.3085    1533959.3    286.65027 
   16400    339.64385   -59064.187   -46651.993   -25082.356    964.16889    1533959.3    285.00264 
   16500    334.34214   -59253.549   -47035.106   -26126.523    934.61957    1533959.3    284.18061 
   16600    331.30643   -59902.505   -47795.001   -30065.723    792.50374    1533959.3    285.16502 
   16700    328.71928   -60486.452   -48473.494   -32285.137    723.62414    1533959.3    283.92725 
   16800    326.99725   -60986.513   -49036.487   -35755.747    593.65284    1533959.3    288.08062 
   16900    331.83808     -61715.9   -49588.966   -39222.575    463.38061    1533959.3    287.77722 
   17000    325.07077   -61888.731   -50009.107   -40608.776    420.19743    1533959.3    284.35593 
   17100    330.36202   -62559.616   -50486.625   -43585.476    308.48333    1533959.3      253.936 
   17200    327.98118   -62868.189   -50882.205   -44697.226    276.47029    1533959.3    278.20125 
   17300    325.68746   -63145.321    -51243.16   -46645.955    205.49637    1533959.3    287.80368 
   17400    326.35569   -63574.892   -51648.311   -48547.852    138.59142    1533959.3     287.9663 
   17500    328.07662   -64028.947   -52039.475   -50599.479     64.36823    1533959.3    296.03146 
   17600    327.42028   -64410.683   -52445.197   -52364.789    3.5942305    1533959.3    294.64003 
   17700    328.55454   -64860.288   -52853.351   -55130.643   -101.79561    1533959.3    291.20741 
   17800    328.23406    -65247.43   -53252.204    -56939.22   -164.81066    1533959.3    291.87452 
   17900    330.35806   -65670.241   -53597.394   -58751.862   -230.40615    1533959.3    293.00759 
   18000     329.1747   -66002.224   -53972.623   -60463.402   -290.13964    1533959.3    294.34456 
   18100    326.98756   -66267.023    -54317.35   -62189.108   -351.86979    1533959.3    285.78036 
   18200    329.38772   -66683.296    -54645.91   -63684.267   -404.01713    1533959.3    295.42095 
   18300    331.67874   -67075.543   -54954.433   -65585.803   -475.22523    1533959.3    292.51654 
   18400    329.99206   -67380.045   -55320.574    -67334.28   -537.01606    1533959.3    293.13824 
   18500    329.55814   -67694.575   -55650.961   -68508.356   -574.72919    1533959.3    289.56809 
   18600    327.34153   -67944.016   -55981.408   -70189.956   -635.12609    1533959.3    281.35171 
   18700     327.5814   -68266.723   -56295.349   -70868.539   -651.42574    1533959.3    286.05829 
   18800      324.449   -68434.233   -56577.331    -72440.22   -709.07564    1533959.3    293.16754 
   18900    323.13081   -68666.803   -56858.074   -73583.557   -747.63384    1533959.3    285.90542 
   19000    320.42991   -68793.094   -57083.069   -73896.258   -751.55432    1533959.3    287.00667 
   19100     321.8967    -68890.78   -57127.152   -74262.893   -765.97248    1533959.3    223.43869 
   19200    305.89979   -68268.187   -57089.161   -72141.918   -672.86251    1533959.3    252.78191 
   19300    313.88575   -68098.448   -56627.578   -71065.085   -645.36067    1533959.3    264.21894 
   19400    309.80415   -67554.395   -56232.685   -68227.341   -536.16449    1533959.3    278.69815 
   19500    312.97414   -67230.439   -55792.883   -66385.676   -473.50084    1533959.3    275.56034 
   19600     311.5452   -66778.589   -55393.253       -63552   -364.69829    1533959.3    262.07914 
   19700    318.49096    -66570.15   -54930.984   -63160.087   -367.84323    1533959.3    294.77152 
   19800     315.0574   -66013.335   -54499.647   -59854.206   -239.35031    1533959.3    286.87652 
   19900    316.19581   -65583.979   -54028.688   -57646.931   -161.73647    1533959.3    270.98576 
   20000    313.57506   -64983.845   -53524.328   -54985.244   -65.303363    1533959.3    259.44368 
   20100    312.08748   -64370.777   -52965.624   -52254.384    31.792617    1533959.3    269.87577 
   20200    315.29579   -63896.657   -52374.258   -49378.415    133.91499    1533959.3    298.15137 
   20300    311.40539    -63091.56   -51711.334   -45415.983    281.40395    1533959.3    295.22051 
   20400    311.37631   -62398.609   -51019.446   -41936.298    406.01925    1533959.3    295.31196 
   20500    310.60874   -61591.503    -50240.39   -38300.471    533.71776    1533959.3    290.05169 
   20600    313.58442   -60927.244   -49467.386   -35215.517     637.0626    1533959.3    242.59312 
   20700    312.75774   -60050.841   -48621.193   -30227.491     822.2037    1533959.3    282.19634 
   20800    324.07082   -59829.921    -47986.84   -29440.006    829.04871    1533959.3    288.09229 
   20900    324.54689   -59205.343   -47344.864   -26026.514     952.9363    1533959.3     287.2028 
   21000    323.17924   -58552.526   -46742.028   -23204.654    1052.1273    1533959.3    278.43377 
   21100    323.56111   -58052.513   -46228.059   -21130.534    1121.8665    1533959.3    256.28861 
   21200     340.6115   -59046.135    -46598.58   -24761.395    976.12832    1533959.3    280.67429 
   21300    335.12784   -59619.411   -47372.254   -29396.085    803.53985    1533959.3    276.14235 
   21400    326.60285   -60018.789   -48083.175   -31512.911     740.6955    1533959.3    278.09519 
   21500    328.00348   -60735.768   -48748.969   -35050.343    612.33247    1533959.3    282.52424 
   21600    326.88326   -61271.876   -49326.016   -37444.539    531.10538    1533959.3    289.83402 
   21700    325.42471   -61704.965   -49812.406   -40116.063    433.42926    1533959.3    287.56374 
   21800    323.91999   -62044.011   -50206.442   -42162.441    359.56911    1533959.3    290.63937 
   21900    326.40917   -62260.982   -50332.447   -43052.991    325.39375    1533959.3    284.01262 
   22000    323.94417   -62290.961   -50452.508   -43229.655    322.86359    1533959.3    284.37463 
   22100     330.4406   -62999.981   -50924.118   -46322.256    205.70455    1533959.3    252.77094 
   22200    325.28267   -63248.279   -51360.912   -47821.267    158.22313    1533959.3     294.5674 
   22300    324.56854   -63600.537   -51739.267   -49861.979    83.915301    1533959.3    270.45003 
   22400    323.98213    -63802.31    -51962.47   -50380.031    70.735496    1533959.3    280.56634 
   22500    327.10507   -64112.042   -52158.075   -51900.733    11.503274    1533959.3    280.96515 
   22600     326.1915   -64401.456   -52480.876   -53245.642   -34.185287    1533959.3    297.49327 
   22700    307.41407   -63920.858   -52686.494   -51518.917    52.191032    1533959.3    284.52182 
   22800    302.21066   -63142.889   -52098.681   -48239.678    172.49857    1533959.3     275.7852 
   22900    308.00145   -62677.081   -51421.251   -45628.065    258.95704    1533959.3    288.29982 
   23000    310.63129   -62075.815   -50723.878   -42452.837    369.71791    1533959.3      287.491 
   23100    306.55084   -61058.086   -49855.268   -37560.272    549.58978    1533959.3    263.31311 
   23200    310.71376   -60386.975   -49032.024   -33999.127    671.97477    1533959.3    295.21427 
   23300    314.29655   -59703.384   -48217.501   -30508.042    791.61784    1533959.3     293.0858 
   23400    313.61633   -58815.865   -47354.841   -25604.102    972.26419    1533959.3     292.7873 
   23500    320.81227   -58382.829   -46658.831   -23960.798    1014.6085    1533959.3    292.17462 
   23600    326.33717   -58156.438   -46230.534   -22089.011    1079.1329    1533959.3    260.78677 
   23700     329.7952   -58609.343   -46557.066   -23769.202     1018.624    1533959.3    288.01356 
   23800    328.29235   -59220.894   -47223.539   -27913.767    863.15226    1533959.3    290.27731 
   23900    329.54148    -59994.52   -47951.515    -32003.61    712.87588    1533959.3    286.39347 
   24000    322.72362   -60262.644   -48468.796   -33982.437    647.54437    1533959.3    278.09538 
   24100    315.59526   -60419.629   -48886.285   -35194.947    612.00667    1533959.3    289.12835 
   24200    325.42394   -61206.325   -49313.795   -38218.827     495.9482    1533959.3    288.86968 
   24300    325.28063   -61598.778   -49711.485    -40014.74    433.44724    1533959.3    291.34374 
   24400     326.3866   -61780.701    -49852.99   -41422.278    376.85522    1533959.3    291.70685 
   24500    319.73894   -61635.545   -49950.772    -40056.98    442.25529    1533959.3    291.25817 
   24600    307.85941   -60782.617   -49531.978   -37043.444    558.24102    1533959.3    207.65978 
   24700    305.67014    -59779.21   -48608.577   -31880.103    747.76753    1533959.3    278.26475 
   24800    312.26082   -59226.667   -47815.179   -28938.951    843.77273    1533959.3    285.17316 
   24900    326.47732    -59154.01   -47222.984   -29064.913    811.67091    1533959.3    282.25939 
   25000    320.21912   -58159.928   -46457.607   -23463.758    1027.8316    1533959.3    281.93647 
   25100    334.80443   -58511.443   -46276.105   -24994.265    951.30425    1533959.3    212.32725 
   25200     333.0318   -58555.127   -46384.569   -24755.178    966.83992    1533959.3    289.47076 
   25300    333.53467   -59415.223   -47226.288   -29882.627    775.26655    1533959.3    285.10105 
   25400    326.28571   -59788.982   -47864.959   -31320.734    739.53152    1533959.3    277.07268 
   25500    319.41084   -60013.016   -48340.233   -33097.441    681.35711    1533959.3    290.04928 
   25600    324.33461    -60583.26   -48730.539   -35159.714    606.61973    1533959.3    202.50129 
   25700     327.8348   -60946.464    -48965.83    -37084.14    531.11489    1533959.3    276.73539 
   25800    319.17532   -60701.104   -49036.928   -36744.075    549.49401    1533959.3    278.15329 
   25900    301.66282   -59685.672   -48661.486   -32278.495    732.32434    1533959.3    274.88996 
   26000    311.91766   -59335.632   -47936.685   -29902.844    806.11778    1533959.3    265.60634 
   26100    314.81804    -58623.06    -47118.12   -27123.153    893.78066    1533959.3    284.56795 
   26200     329.1415   -58727.345   -46698.957   -26269.563     913.1997    1533959.3     294.2473 
   26300    321.92679   -57979.486   -46214.758   -22663.504    1052.7477    1533959.3    292.12192 
   26400    338.31794   -58976.372   -46612.634   -27645.795    847.82309    1533959.3    292.69638 
   26500     332.9865    -59521.32   -47352.418    -29543.77    796.05161    1533959.3    293.78481 
   26600    327.79484   -59922.531   -47943.356   -33055.809    665.47757    1533959.3    222.36015 
   26700    319.68698   -60007.463   -48324.588   -33254.394    673.64194    1533959.3    291.30813 
   26800    312.10051   -59898.728   -48493.099   -32800.524    701.46255    1533959.3    291.49682 
   26900    335.61286   -61271.128   -49006.246   -38934.533    450.20844    1533959.3    286.99351 
   27000    333.49213   -61812.196   -49624.816   -41719.837    353.35481    1533959.3    279.00385 
   27100    331.28241   -62346.685   -50240.058   -44064.106     276.0668    1533959.3    296.77904 
   27200     327.0069   -62729.951   -50779.572   -46324.381    199.14829    1533959.3    302.81378 
   27300    327.06657   -63158.303   -51205.743   -48251.323    132.06343    1533959.3    291.40406 
   27400    320.88215   -63219.108   -51492.556   -48469.966    135.11065    1533959.3    298.77769 
   27500    307.67986   -62854.125   -51610.047     -47857.6    167.73544    1533959.3     298.9161 
   27600    324.84549   -63406.622   -51535.231   -48893.228    118.09828    1533959.3     233.0736 
   27700    302.49211   -62430.376   -51375.883   -45063.567     282.1623    1533959.3    294.97655 
   27800    310.68506   -62160.165   -50806.263   -43617.746    321.32874    1533959.3    294.77484 
   27900    313.53278   -61609.835   -50151.864   -40469.058    432.82416    1533959.3    293.56602 
   28000    315.63374   -61055.866   -49521.115   -37677.023    529.43425    1533959.3    263.04014 
   28100    315.34426   -60415.718   -48891.547   -34113.991    660.56095    1533959.3    290.32373 
   28200    310.40675   -59494.689   -48150.958   -30543.984    787.03671    1533959.3    251.32072 
   28300    310.58438   -58700.261   -47350.038   -27104.141    904.99735    1533959.3    269.34874 
   28400    320.99389   -58513.892   -46783.256    -24514.62    995.41433    1533959.3    266.07627 
   28500    332.58368   -58553.703   -46399.522   -24703.455    969.82034    1533959.3    286.77453 
   28600     339.9201   -59056.778   -46634.489   -27165.263    870.27989    1533959.3    286.23125 
   28700    330.43819   -59309.994   -47234.219   -28590.049    833.39964    1533959.3    293.35228 
   28800    329.50855   -59930.098   -47888.297    -32472.82     689.0762    1533959.3    293.07556 
   28900     326.4875   -60353.493   -48422.095   -34457.033    624.24222    1533959.3    289.01061 
   29000    329.92538   -60989.342   -48932.308   -38395.367    471.00424    1533959.3    287.20202 
   29100     334.0666   -61735.802   -49527.428   -41012.569    380.61658    1533959.3      270.423 
   29200     329.9027   -62094.647   -50038.442   -42433.912    339.92462    1533959.3    291.77483 
   29300     326.9609   -62470.205   -50521.507   -45151.776     240.0285    1533959.3    291.41014 
   29400    321.89119   -62703.268   -50939.841   -45867.423     226.7385    1533959.3     293.1786 
   29500    322.08571   -63079.206    -51308.67   -48102.129    143.33329    1533959.3    292.03649 
   29600    323.88788   -63534.693   -51698.297   -49750.031     87.08804    1533959.3    291.78335 
   29700      334.606   -64398.297   -52170.211   -54133.727   -87.769719    1533959.3    296.06385 
   29800    331.40934   -64758.129   -52646.864   -55433.401   -124.55899    1533959.3    281.59897 
   29900    323.21164   -64863.322   -53051.639   -56545.961   -156.19715    1533959.3    287.83014 
   30000     325.6629    -65259.49   -53358.227   -57892.321   -202.67528    1533959.3    278.49958 
   30100     316.5449   -65214.573   -53646.524    -57906.29   -190.41271    1533959.3    261.40928 
   30200    322.77326   -65591.341   -53795.679   -60043.106   -279.26176    1533959.3    293.59952 
   30300     324.8713   -65864.005   -53991.671    -61315.46   -327.37546    1533959.3    296.71123 
   30400     324.9986    -66104.79   -54227.803   -62581.276   -373.40259    1533959.3    281.55285 
   30500    324.12624   -66300.656    -54455.55   -63495.032   -404.06741    1533959.3    286.61109 
   30600    299.30291   -65299.449   -54361.504    -59152.96   -214.17941    1533959.3    253.10361 
   30700    307.61189   -65047.653   -53806.059   -58019.946   -188.36192    1533959.3    295.92891 
   30800    305.03833   -64309.449   -53161.905   -53865.714   -31.460474    1533959.3    292.35832 
   30900    305.30297   -63590.006   -52432.791   -50030.517     107.3823    1533959.3    291.59713 
   31000    308.58717   -62923.931   -51646.696   -46527.983    228.80789    1533959.3    283.97224 
   31100    306.65051    -61948.39   -50741.929   -42036.492     389.1355    1533959.3    174.90988 
   31200    313.44719   -61326.529   -49871.686   -38776.153    495.97346    1533959.3    268.70098 
   31300    312.46155    -60323.87   -48905.047   -33924.448    669.63703    1533959.3    246.96957 
   31400    317.12644   -59629.597   -48040.296   -29892.454    811.21366    1533959.3    275.42228 
   31500    321.01397    -58967.16    -47235.79    -27553.86    879.78784    1533959.3    278.75723 
   31600    327.16504   -58605.933   -46649.775    -24887.19     972.7937    1533959.3    278.77354 
   31700    328.21805   -58264.853   -46270.213   -23449.958    1020.0719    1533959.3    276.02967 
   31800    336.69562   -58676.362   -46371.911   -25973.283    911.82446    1533959.3    288.10555 
   31900    334.99073   -59339.467    -47097.32   -28494.736     831.5408    1533959.3    290.50692 
   32000    328.65459   -59908.902   -47898.308    -31922.41    714.12718    1533959.3    286.63969 
   32100    325.08123     -60401.6   -48521.594   -34675.515    618.92361    1533959.3    284.43596 
   32200    323.82876   -60806.624   -48972.389   -36667.405    550.03626    1533959.3    296.02791 
   32300    317.07268   -60841.151   -49253.815   -37304.877    534.12091    1533959.3    298.05708 
   32400    304.30979   -59811.555   -48690.636   -32901.453    705.78095    1533959.3    268.85995 
   32500    313.21894   -59324.943   -47878.442   -30417.124    780.52584    1533959.3    287.50086 
   32600    315.83941   -58549.392   -47007.126   -26370.002    922.48528    1533959.3    216.38182 
   32700    320.23503   -58053.159   -46350.256   -23195.562    1035.0214    1533959.3    288.53047 
   32800    326.47151   -58030.565   -46099.752   -22472.374    1056.1505    1533959.3    288.95625 
   32900    335.14435   -58872.173   -46624.413   -26654.166    892.67568    1533959.3    285.14892 
   33000     330.3253   -59487.191   -47415.542   -29670.103    793.22614    1533959.3    285.10337 
   33100    326.49541   -60023.061   -48091.374   -32791.602    683.90416    1533959.3    204.11748 
   33200    319.03655   -60207.002   -48547.897   -33976.096     651.3636    1533959.3    296.33306 
   33300    331.05868   -61308.466   -49210.015   -39025.435     455.2536    1533959.3    295.21178 
   33400    327.09166   -61721.015   -49767.539   -40661.395    407.04718    1533959.3     288.1006 
   33500    323.99843   -62046.295    -50205.86   -42887.418    327.13643    1533959.3    297.23227 
   33600    323.75822   -62395.403   -50563.746   -44520.646    270.12829    1533959.3    206.54545 
   33700    323.23302   -62647.735   -50835.271   -45500.537    238.46411    1533959.3    292.88319 
   33800    301.00314   -61740.592   -50740.513    -41989.08    391.19151    1533959.3    299.20418 
   33900     308.5544   -61322.387   -50046.349   -40271.064      436.958    1533959.3    294.14371 
   34000    314.57473   -60775.823   -49279.774   -36316.908    579.44379    1533959.3      289.444 
   34100    311.86998   -59837.258   -48440.053    -32016.31    734.14598    1533959.3    229.53987 
   34200    314.28983    -59087.33   -47601.693   -28475.671     854.9386    1533959.3    297.86637 
   34300    316.13821   -58397.244   -46844.059    -25101.81    971.88465    1533959.3    296.08057 
   34400    322.77734   -58103.409   -46307.598   -22803.811    1050.6259    1533959.3    289.82561 
   34500    335.65873   -58375.162   -46108.604   -24019.013    987.41096    1533959.3    296.61806 
   34600    337.74519   -58955.529   -46612.721   -26426.357    902.33622    1533959.3    289.53451 
   34700    332.01801    -59541.24   -47407.731    -29698.23    791.61974    1533959.3    289.59388 
   34800     329.0928   -60069.392   -48042.784   -32067.921    714.08091    1533959.3    290.82034 
   34900    322.50804   -60372.487   -48586.517   -34625.141    624.07745    1533959.3    293.33772 
   35000    325.80055     -61014.3   -49108.007   -37341.839    525.95103    1533959.3    271.11362 
   35100    327.58649   -61624.837   -49653.277    -39740.81    443.09006    1533959.3     252.7455 
   35200    325.93219   -62007.137   -50096.033   -42427.589    342.78163    1533959.3    283.38398 
   35300    325.46587   -62185.968   -50291.905   -42903.614    330.25871    1533959.3    293.52288 
   35400    313.97841   -61600.669   -50126.412   -40783.048    417.65104    1533959.3    289.66028 
   35500    310.16156   -60717.766   -49382.995    -36712.77    566.36268    1533959.3    292.18582 
   35600    308.89921   -59847.256   -48558.618   -32153.686    733.30512    1533959.3    211.69839 
   35700    312.97286   -59220.308   -47782.799   -28854.375    846.10592    1533959.3    292.49614 
   35800    319.67813   -58755.814   -47073.263   -26012.536    941.42046    1533959.3    291.04111 
   35900    318.79772   -58024.929   -46374.552   -23300.027    1031.4378    1533959.3    290.42505 
   36000    330.50853   -58339.085   -46260.739   -24125.719    989.44165    1533959.3    285.86528 
   36100    337.40885   -59171.802   -46841.286   -27459.774    866.35908    1533959.3     279.6984 
   36200    328.30933    -59526.79   -47528.814   -30242.169     772.7179    1533959.3    297.40847 
   36300    326.31479    -60145.46   -48220.374   -32947.728    682.69157    1533959.3    297.92138 
   36400    326.92647   -60760.837   -48813.397   -35880.514    578.10353    1533959.3    295.12184 
   36500    322.46243   -61035.358   -49251.055   -38142.895    496.53792    1533959.3     295.2309 
   36600    319.59292   -61319.806   -49640.369   -39280.142    463.10506    1533959.3    287.50342 
   36700     335.4856   -62410.713   -50150.482   -44406.222    256.77008    1533959.3    294.16867 
   36800    332.42931   -62931.352   -50782.812   -46622.304    185.97588    1533959.3    290.47473 
   36900    328.17708    -63315.98   -51322.837   -48902.422    108.19321    1533959.3    289.89031 
   37000    321.61569   -63465.135   -51711.776   -49396.888    103.47614    1533959.3    289.39287 
   37100    323.91274   -63830.498   -51993.194    -50971.63    45.664182    1533959.3    254.79275 
   37200    324.15116   -64094.287    -52248.27   -52182.472    2.9411815    1533959.3    279.05676 
   37300    322.49827   -64299.889   -52514.276   -53579.993   -47.637832    1533959.3    287.47189 
   37400    301.32542   -63391.596   -52379.739   -49797.945    115.40693    1533959.3    296.41138 
   37500    304.72368   -62802.992   -51666.947   -47236.788     198.0294    1533959.3    290.06874 
   37600    311.22624    -62358.17    -50984.49   -44717.674    280.12844    1533959.3    290.42324 
   37700    317.27076   -61966.771   -50372.197   -41770.703    384.48918    1533959.3    289.91295 
   37800    309.03676   -60936.294   -49642.629   -37141.878     558.7871    1533959.3    290.32895 
   37900    309.42716   -60143.518   -48835.586   -33241.889    697.04264    1533959.3    286.90949 
   38000    312.81319   -59435.986   -48004.312    -29530.47    825.78594    1533959.3    278.21436 
   38100    316.14551   -58783.238   -47229.785   -26763.113    914.86605    1533959.3    273.89835 
   38200    325.48659   -58573.843   -46679.023   -24957.442     970.9608    1533959.3    290.95651 
   38300    329.87859   -58323.346   -46268.021   -23749.374    1006.5899    1533959.3    285.94635 
   38400    339.47099   -58807.409   -46401.533   -25922.136    915.43485    1533959.3    285.76244 
   38500    331.25003   -59206.659   -47101.216   -28229.502    843.57095    1533959.3    277.79552 
   38600    329.67084   -59928.274   -47880.541   -31894.291     714.5899    1533959.3     282.5545 
   38700    323.95792   -60320.432   -48481.476   -33691.218    661.12874    1533959.3    284.45776 
   38800    327.56056   -61032.538   -49061.926    -36794.98    548.33595    1533959.3      282.608 
   38900    327.88711    -61548.38   -49565.834   -39782.228    437.32995    1533959.3    282.49703 
   39000    330.01201    -62180.44    -50120.24   -42202.909    353.90692    1533959.3    280.46334 
   39100    329.82038   -62750.124   -50696.927   -45748.834    221.18114    1533959.3    230.05266 
   39200    330.39931   -63318.106   -51243.752   -48660.045    115.49242    1533959.3    271.41538 
   39300    320.79993   -63391.824   -51668.277   -49069.611    116.16113    1533959.3    299.83215 
   39400    324.31055   -63905.569   -52053.727   -51166.336    39.666628    1533959.3    302.37499 
   39500    331.04126   -64461.768   -52363.953     -54171.5    -80.79786    1533959.3    302.24731 
   39600    325.07268   -64701.502   -52821.809   -55628.117   -125.44276    1533959.3    209.73502 
   39700    319.70593   -64868.373   -53184.805   -56721.273    -158.0811    1533959.3    298.04395 
   39800    321.23741   -65185.037   -53445.502   -58007.411   -203.91862    1533959.3    297.53231 
   39900    326.57753   -65594.897   -53660.208   -60032.908   -284.86145    1533959.3    297.71731 
   40000    322.38428   -65733.664   -53952.217   -60704.052   -301.80891    1533959.3    292.47636 
   40100    330.54567    -66246.77   -54167.067   -62093.727   -354.32394    1533959.3    260.59444 
   40200    328.10252    -66507.34   -54516.921   -64029.974   -425.23616    1533959.3    297.42449 
   40300    328.53045   -66818.584   -54812.527   -65086.038   -459.22882    1533959.3    304.30377 
   40400    326.22788   -67010.815   -55088.905   -66203.396   -496.82091    1533959.3    300.94827 
   40500     322.7848   -67123.507   -55327.423   -66825.687   -513.97567    1533959.3    298.50297 
   40600    317.78201   -67141.043   -55527.784   -67336.005   -527.83078    1533959.3    210.78101 
   40700    327.40636    -67534.55   -55569.572   -68874.621   -594.73944    1533959.3    300.23909 
   40800     324.7986   -67694.676   -55824.998   -69261.264   -600.60486    1533959.3    297.54455 
   40900    332.96698   -68134.695   -55966.506    -71142.89   -678.38866    1533959.3    297.26071 
   41000    327.41282   -68232.016   -56266.803   -71763.256   -692.69584    1533959.3    291.78762 
   41100    327.31208   -68458.483   -56496.951   -72919.929   -734.11177    1533959.3    190.80187 
   41200     326.3316    -68637.08   -56711.379   -73221.895   -738.02472    1533959.3    281.26077 
   41300    327.89225   -68879.688   -56896.954    -74367.49   -780.93789    1533959.3    280.61814 
   41400    325.39821   -69005.185   -57113.595   -75310.084    -813.3882    1533959.3    280.21338 
   41500    319.56298   -68997.892   -57319.549   -75338.934   -805.47162    1533959.3    299.32952 
   41600    302.62064   -68491.327   -57432.137   -73129.754   -701.68792    1533959.3    294.48571 
   41700    313.26936   -68437.945     -56989.6    -72416.15   -689.57113    1533959.3    288.27921 
   41800    305.61066    -67807.94   -56639.481   -69984.788     -596.539    1533959.3    296.56165 
   41900    305.28396   -67340.613   -56184.092   -66959.333    -481.6563    1533959.3    302.64772 
   42000    304.37365   -66780.281   -55657.028    -64899.16   -413.12593    1533959.3    282.08835 
   42100    311.64464   -66440.584   -55051.614    -62509.67   -333.37722    1533959.3     195.3121 
   42200    312.53005   -65920.794   -54499.467   -59628.418   -229.26556    1533959.3    275.27731 
   42300    316.34996   -65523.153   -53962.228   -57954.353    -178.4491    1533959.3    253.03002 
   42400    311.01488   -64734.339   -53368.383    -53880.37   -22.885953    1533959.3    253.95152 
   42500    315.79166   -64296.621     -52756.1   -51774.286    43.887393    1533959.3     248.2104 
   42600    322.15052   -63996.179   -52223.275   -50228.199     89.18043    1533959.3    274.12587 
   42700    316.18726   -63192.968    -51637.99    -45633.21    268.41536    1533959.3    261.08562 
   42800    312.59765     -62412.4   -50988.602   -42802.458    365.92298    1533959.3    278.58264 
   42900    321.90987   -62201.494   -50437.384   -41389.759    404.43139    1533959.3    276.11871 
   43000    317.63685   -61451.015   -49843.061   -37161.452    566.87152    1533959.3    282.02064 
   43100    318.35934    -60872.94   -49238.584   -35601.747    609.57043    1533959.3    258.69607 
   43200    315.98077    -60056.79   -48509.358   -31175.364    774.83444    1533959.3    295.20638 
   43300    318.27645   -59447.649   -47816.322   -28448.198    865.76063    1533959.3    287.43643 
   43400    318.53247   -58828.732   -47188.049   -24958.187    993.68113    1533959.3    277.42638 
   43500    323.86635   -58571.453   -46735.845    -24605.55    989.23046    1533959.3    278.54841 
   43600    330.48481   -58556.509   -46479.031   -24190.473    996.30482    1533959.3    229.13922 
   43700     339.1367   -59229.026   -46835.366   -25965.413    932.89279    1533959.3    282.01666 
   43800    332.69391   -59703.965   -47545.756   -29479.412     807.5707    1533959.3    276.54326 
   43900    327.75358   -60128.982   -48151.315    -31349.15    751.06154    1533959.3    283.60664 
   44000    326.20071   -60660.076   -48739.159   -34276.868    646.46847    1533959.3    281.49748 
   44100    328.95937   -61361.946   -49340.215   -38196.281      498.137    1533959.3    273.80609 
   44200    329.25216    -61962.16   -49929.728   -41464.586    378.39427    1533959.3    294.93569 
   44300    331.09038     -62587.5   -50487.891   -44520.977    266.72274    1533959.3    288.57196 
   44400    327.93934   -62997.446   -51012.991   -46622.074    196.27524    1533959.3    292.06984 
   44500     325.8616   -63381.314    -51472.79   -48172.709    147.51456    1533959.3    293.81424 
   44600    332.39192   -64075.052   -51927.879   -51262.288    29.752086    1533959.3    283.66131 
   44700    330.80729   -64450.696   -52361.433   -53230.304   -38.838804    1533959.3    295.85543 
   44800    325.38713   -64684.164   -52792.979   -54675.845   -84.164659    1533959.3    295.60959 
   44900    323.90553   -65011.736   -53174.696   -56542.984   -150.56342    1533959.3    295.10024 
   45000    326.87292   -65435.839   -53490.355   -57971.773   -200.32066    1533959.3    289.66028 
   45100    327.47773   -65727.185     -53759.6   -59551.106   -258.88196    1533959.3     245.5542 
   45200    325.40682   -65984.631   -54092.726   -61235.529   -319.28532    1533959.3    297.23164 
   45300    327.91477   -66325.555   -54341.998   -62831.922   -379.50203    1533959.3    293.36952 
   45400    325.30514   -66521.657   -54633.468   -63226.425   -384.10763    1533959.3    292.57653 
   45500    327.60606   -66837.952   -54865.676   -65443.145   -472.81584    1533959.3    301.07054 
   45600    303.37456    -65925.06   -54838.318   -61411.887   -293.84037    1533959.3     299.0896 
   45700    301.56601   -65289.315   -54268.666   -58821.814     -203.527    1533959.3    297.20068 
   45800    305.34882   -64789.163   -53630.272   -55550.604   -85.839374    1533959.3    281.31359 
   45900    307.68794   -64171.573   -52927.199   -52424.122    22.487684    1533959.3    292.08693 
   46000    310.77218   -63581.267   -52224.181   -49401.223    126.18703    1533959.3     280.2336 
   46100    308.84417   -62748.543   -51461.916   -44907.753    292.97292    1533959.3    248.82753 
   46200    312.32572   -62134.257   -50720.398   -42104.468     385.1345    1533959.3    260.83493 
   46300    316.02073   -61570.538   -50021.645   -38992.862    492.98972    1533959.3    278.34692 
   46400    324.89745   -61301.093   -49427.803   -38130.724    504.98261    1533959.3    285.80334 
   46500    316.32717   -60129.601    -48569.51   -32072.859    737.40495    1533959.3      267.374 
   46600    317.31355   -59395.049   -47798.911   -29398.701     822.4946    1533959.3    248.09339 
   46700    320.22374   -58824.289   -47121.798   -25827.511    951.86063    1533959.3    278.08985 
   46800    324.22869   -58396.924   -46548.074   -23478.339    1031.2237    1533959.3    288.11466 
   46900    340.88011   -58937.395   -46480.023   -25507.596    937.47342    1533959.3    291.75534 
   47000    332.22234   -59020.109   -46879.133   -26684.181    902.72005    1533959.3    285.77549 
   47100    332.77315   -59918.278   -47757.173   -30867.048    754.99337    1533959.3    258.12039 
   47200    329.35682    -60484.13   -48447.873   -33958.057    647.69889    1533959.3    296.62058 
   47300    327.80463   -61013.862   -49034.329   -37295.018    524.75054    1533959.3    299.39768 
   47400    327.66904   -61544.186   -49569.609   -39410.857    454.09907    1533959.3    295.12287 
   47500    327.08166   -62093.936   -50140.825   -41717.156    376.54037    1533959.3    296.79311 
   47600    326.36887   -62597.125   -50670.063   -45309.049    239.63882    1533959.3    263.81112 
   47700    310.07556   -62264.429   -50932.801    -44010.79    309.41583    1533959.3    291.19467 
   47800    330.66949   -63178.851   -51094.624   -47727.577    150.50792    1533959.3    292.06882 
   47900    324.88251   -63311.578   -51438.834    -48170.47    146.09681    1533959.3    293.16406 
   48000    321.30183   -63566.822   -51824.932   -49464.399    105.51653    1533959.3    287.81454 
   48100    325.65246   -64044.954   -52144.073   -51334.478    36.189113    1533959.3    241.57857 
   48200     324.9933   -64319.659   -52442.866   -53073.825   -28.204042    1533959.3    253.30615 
   48300    323.28346   -64526.218   -52711.911   -54275.997   -69.915071    1533959.3    294.77049 
   48400    324.87377    -64823.86   -52951.436   -55993.923   -136.00006    1533959.3    284.39064 
   48500    322.19233   -65016.981   -53242.549   -56648.947   -152.26697    1533959.3    275.45176 
   48600    325.53746   -65073.588   -53176.909   -56768.063   -160.52558    1533959.3    282.74783 
   48700    331.41124    -65306.36   -53195.026   -57317.646    -184.2823    1533959.3    297.50761 
   48800    327.67902   -65561.301   -53586.359   -59093.634   -246.17674    1533959.3    286.23594 
   48900    326.96898   -65872.663   -53923.669     -61172.3   -324.01585    1533959.3    279.72358 
   49000    328.26853    -66208.14   -54211.655   -62244.912   -359.08888    1533959.3    290.88185 
   49100    327.30669   -66439.935     -54478.6   -63392.776   -398.46619    1533959.3    273.77016 
   49200    325.38894   -66680.239   -54788.988   -64736.435   -444.65371    1533959.3    298.21899 
   49300    327.40479   -67046.635   -55081.715   -65767.825   -477.67215    1533959.3    283.12421 
   49400    326.25764   -67330.297     -55407.3   -67818.987   -554.80594    1533959.3    282.47058 
   49500    331.17958   -67775.451   -55672.582   -69369.214   -612.24334    1533959.3    301.45809 
   49600    322.78708   -67816.338   -56020.171    -70186.58   -633.24249    1533959.3      274.192 
   49700    327.81931   -68188.339    -56208.27   -71716.526   -693.22344    1533959.3    288.54298 
   49800      323.966    -68337.52   -56498.269   -72229.556   -703.19295    1533959.3    287.89969 
   49900    320.51119   -68451.899   -56738.904   -73313.356   -740.88269    1533959.3    296.36132 
   50000    325.77582   -68774.141   -56868.752   -74737.297   -798.72905    1533959.3    247.25668 
   50100    326.80232    -69009.17   -57066.267   -75610.856   -828.94834    1533959.3     240.9326 
   50200    325.29575   -69122.902   -57235.056   -76068.676   -841.86815    1533959.3    280.57328 
   50300    316.54122   -68919.978   -57352.064   -74916.611   -785.14023    1533959.3    302.61213 
   50400    309.45939   -68431.518   -57122.407   -73516.786   -732.83338    1533959.3    305.76924 
   50500    307.64996    -67965.74   -56722.755   -70837.263   -630.92253    1533959.3    306.17369 
   50600    306.12573   -67447.527   -56260.245   -67979.672    -523.8617    1533959.3    260.80315 
   50700     309.7849   -67074.252   -55753.247   -66174.875   -465.84975    1533959.3    244.53532 
   50800    310.99544   -66644.601   -55279.356   -63677.953   -375.41968    1533959.3    271.63932 
   50900    315.37481   -66297.233   -54771.945   -62185.083   -331.36937    1533959.3    281.80539 
   51000     311.0925    -65627.09   -54258.298   -58820.972   -203.95282    1533959.3    292.63716 
   51100    311.77287   -65109.311   -53715.655   -55590.999   -83.828375    1533959.3    269.93326 
   51200    311.00416   -64446.797   -53081.233   -52569.314    22.882938    1533959.3      278.346 
   51300     312.1765   -63809.747   -52401.341   -49717.089    119.98682    1533959.3    269.80217 
   51400    317.57963   -63369.683   -51763.821   -46679.851    227.25491    1533959.3    218.47325 
   51500    314.38481   -62577.984   -51088.876   -43361.543    345.41397    1533959.3    246.96172 
   51600    318.67892   -62103.662   -50457.626    -40574.95    441.75844    1533959.3    278.78688 
   51700    321.85578   -61608.907   -49846.774   -38256.757    518.07706    1533959.3    291.81908 
   51800    318.21098   -60787.066   -49158.131    -34952.22    635.00827    1533959.3    290.97004 
   51900    315.23539   -59911.084   -48390.891   -30870.694    783.15779    1533959.3    290.73749 
   52000    328.13817   -59886.742   -47895.021    -29280.11    832.09175    1533959.3     288.8295 
   52100    315.60708   -58529.191   -46995.416   -24275.084    1015.6053    1533959.3    252.91665 
   52200    323.23969   -58233.471   -46420.763   -22605.419    1064.5526    1533959.3    290.59809 
   52300    325.83316   -58146.508   -46239.023   -21741.403    1095.0506    1533959.3    288.08972 
   52400    332.95042   -59029.466   -46861.882   -25972.382    933.76657    1533959.3    276.28277 
   52500    326.16179   -59451.426   -47531.931    -29158.44    821.30025    1533959.3    272.88634 
   52600    328.12732   -60258.218   -48266.894   -32482.065    705.58632    1533959.3    274.88618 
   52700    315.80783   -60295.985   -48754.873   -33333.501    689.33969    1533959.3    289.01479 
   52800    327.94659   -61323.047   -49338.327   -38474.358    485.62248    1533959.3     290.7518 
   52900    326.86145   -61778.089   -49833.025   -40396.715    421.80571    1533959.3    283.14485 
   53000    327.24811   -62321.122   -50361.928   -43123.616    323.55458    1533959.3    269.54832 
   53100     328.8609   -62884.488   -50866.355   -46522.039    194.19213    1533959.3    255.26819 
   53200    327.04061   -63245.409   -51293.798   -47921.952    150.72246    1533959.3    278.10681 
   53300    327.34261   -63527.697   -51565.049   -49261.583    102.96558    1533959.3    283.91995 
   53400     329.3693   -63939.305   -51902.592   -51330.676    25.564839    1533959.3    280.25813 
   53500    322.57284   -64075.047   -52286.709   -52259.835    1.2012653    1533959.3    281.43723 
   53600    326.57435   -64540.301    -52605.73   -54095.755   -66.604546    1533959.3    282.20679 
   53700    325.07564   -64723.761   -52843.959   -55455.035   -116.71582    1533959.3    280.94219 
   53800    319.00643   -64768.724   -53110.719   -56058.539   -131.76835    1533959.3    287.94712 
   53900    324.08792   -65158.774   -53315.068   -57656.455   -194.06122    1533959.3    292.32429 
   54000    327.57577   -65541.744   -53570.575   -58964.393   -241.10515    1533959.3    292.79997 
   54100    327.29252   -65863.664   -53902.847   -61170.334   -324.85872    1533959.3     264.2008 
   54200    325.88181   -66095.565   -54186.302   -61886.281   -344.19127    1533959.3    286.11157 
   54300    326.69763   -66403.951   -54464.875   -63636.837   -409.98932    1533959.3    303.82301 
   54400    326.48127   -66677.557   -54746.387   -64499.295   -435.95775    1533959.3    296.87063 
   54500    328.62719   -67024.346   -55014.754   -66707.569   -522.67212    1533959.3     298.6492 
   54600    331.67171    -67382.75   -55261.897    -68010.29   -569.85679    1533959.3    302.91745 
   54700    326.19349   -67499.222   -55578.569   -68199.335   -564.15183    1533959.3    295.15776 
   54800    324.41856   -67715.459    -55859.67   -69422.753   -606.27366    1533959.3    294.32535 
   54900    325.17976   -67955.325   -56071.719   -70607.922   -649.77241    1533959.3    282.44757 
   55000    321.86042   -68068.495   -56306.193   -70849.115   -650.07273    1533959.3    289.85765 
   55100    326.04293   -68394.363   -56479.212   -72609.705   -721.03759    1533959.3    252.63178 
   55200    323.75611   -68538.488   -56706.908   -72857.251   -721.92489    1533959.3    290.49404 
   55300    329.91316   -68867.484   -56810.896   -74083.648    -772.0969    1533959.3    297.90276 
   55400    329.08115   -69000.676   -56974.494   -74457.112   -781.47795    1533959.3    299.73509 
   55500    324.27299    -69058.71    -57208.24   -75223.967   -805.30808    1533959.3    294.91391 
   55600    327.70893   -69235.479   -57259.444   -75968.233   -836.28817    1533959.3    286.69239 
   55700    323.81032   -69233.842   -57400.281   -76263.874   -843.20796    1533959.3    296.22339 
   55800    316.67586   -69127.175   -57554.341   -75878.341   -819.08799    1533959.3    285.03091 
   55900    302.04859   -68631.451   -57593.166    -74104.39   -738.05638    1533959.3    287.87676 
   56000    301.56164   -68286.847   -57266.358   -71658.739    -643.3435    1533959.3    271.63211 
   56100    305.92378   -67975.303   -56795.401    -70225.87   -600.34578    1533959.3    223.47715 
   56200    305.94715   -67499.604   -56318.847   -67523.376   -500.84561    1533959.3    276.04475 
   56300    311.76382    -67192.04   -55798.715     -65982.9   -455.23595    1533959.3    269.86778 
   56400    313.52737    -66755.13   -55297.357   -63659.869   -373.80665    1533959.3    289.47995 
   56500    316.34595   -66375.578   -54814.801   -61505.024   -299.05485    1533959.3    286.24747 
   56600    312.29294   -65767.549   -54354.887   -58528.822   -186.57606    1533959.3    299.01093 
   56700    314.86256   -65336.307   -53829.739   -56458.413   -117.50244    1533959.3    286.31644 
   56800     309.1483   -64545.467   -53247.726   -52045.003    53.762027    1533959.3    285.61961 
   56900    312.65234   -64040.727   -52614.931   -50201.114    107.89832    1533959.3    283.81832 
   57000    314.43472   -63450.479   -51959.547   -46993.623    221.97818    1533959.3    286.64968 
   57100    316.83231   -62918.359   -51339.807    -43918.78    331.72202    1533959.3    272.92647 
   57200    315.59412   -62180.046   -50646.743   -40913.835    435.06375    1533959.3    285.51112 
   57300    317.58134   -61598.161   -49992.236    -37353.15    564.97071    1533959.3    287.41496 
   57400    318.13806   -60962.854   -49336.584   -34709.557    653.83228    1533959.3    284.13036 
   57500     316.6121    -60217.28   -48646.776   -30909.039     792.8819    1533959.3    286.20176 
   57600     319.9183   -59690.115   -47998.786   -29062.709    846.44803    1533959.3    265.97369 
   57700     316.7088   -58817.029   -47242.991   -24434.926     1019.527    1533959.3     289.2406 
   57800     322.9758    -58523.32   -46720.256   -22991.537    1060.6805    1533959.3    278.19812 
   57900     331.8289    -58584.37   -46457.772   -23146.944    1042.0006    1533959.3    285.26839 
   58000    333.01636   -58889.352   -46719.359   -25378.716    953.93276    1533959.3    283.80065 
   58100    328.82248    -59511.66    -47494.93   -28290.631     858.4376    1533959.3    212.10713 
   58200    331.73556   -60399.191   -48276.005   -32167.094    720.07285    1533959.3    291.23531 
   58300    324.09225   -60624.437   -48780.573   -34161.524    653.47561    1533959.3    288.23167 
   58400     329.3555   -61423.246   -49387.038   -38974.843    465.42808    1533959.3    284.96197 
   58500    327.12487   -61881.546   -49926.856    -40629.97    415.57343    1533959.3    285.96682 
   58600    317.61373   -61994.194   -50387.086   -41753.686    385.91542    1533959.3    249.68533 
   58700    324.45859   -62668.769   -50811.517   -44322.682    290.05274    1533959.3    285.61066 
   58800    316.16978   -62743.255   -51188.915   -45472.226    255.53761    1533959.3    293.33772 
   58900    328.40995   -63545.347   -51543.693   -48681.518    127.94005    1533959.3    292.78301 
   59000    327.38117   -63838.534   -51874.477   -49967.191    85.256252    1533959.3    285.66357 
   59100    320.16445   -63935.363    -52235.04   -50652.212    70.752824    1533959.3    285.87697 
   59200    323.62356   -64354.553   -52527.817   -52368.187     7.135517    1533959.3    250.06493 
   59300    328.21232   -64766.067   -52771.636   -54561.101   -79.989621    1533959.3    285.61883 
   59400    322.93321   -64863.301   -53061.793    -54604.52   -68.960318    1533959.3    283.99492 
   59500    327.66702   -65353.906   -53379.403   -57158.019   -168.90523    1533959.3    275.14025 
   59600    329.31317   -65731.824   -53697.162   -59511.078   -259.88366    1533959.3    266.93855 
   59700    325.49817   -65895.273    -54000.03    -60376.56   -285.03267    1533959.3    274.99503 
   59800    330.33051   -66333.718   -54261.878   -62050.288   -348.14413    1533959.3    294.56554 
   59900    326.10388   -66496.698   -54579.319   -63038.364    -378.1217    1533959.3    294.30903 
   60000    328.25776   -66833.138   -54837.047   -64804.652   -445.55476    1533959.3    294.23615 
   60100    326.40912   -67061.141   -55132.608    -65917.19   -482.07389    1533959.3     284.9854 
   60200    327.68664   -67366.903   -55391.682   -67394.061   -536.50973    1533959.3    275.24786 
   60300    326.84598   -67613.022   -55668.523   -68944.981    -593.4614    1533959.3    283.72904 
   60400     326.1467   -67793.171   -55874.228    -69694.46   -617.76829    1533959.3    291.05807 
   60500     326.5939   -68037.843   -56102.556   -70937.778   -663.13859    1533959.3    296.62939 
   60600    326.94071   -68253.031    -56305.07   -71114.053    -661.9657    1533959.3    300.36336 
   60700    326.37263   -68446.164   -56518.964   -72300.591   -705.44322    1533959.3    300.08421 
   60800    324.81939   -68624.645   -56754.208   -73148.634   -732.83547    1533959.3    299.27377 
   60900    322.33881   -68718.207   -56938.422    -74161.37   -769.87063    1533959.3    296.38939 
   61000    319.49635    -68726.27   -57050.362   -73775.125   -747.60167    1533959.3    295.44031 
   61100    312.32036    -68526.91   -57113.246   -72614.954   -692.93073    1533959.3    218.66574 
   61200    306.85995   -68075.019   -56860.905   -71518.893   -655.21624    1533959.3    289.67708 
   61300     305.9891   -67645.315   -56463.026   -68216.579   -525.38717    1533959.3    293.54424 
   61400    306.86694   -67187.012   -55972.642   -66801.178   -484.03862    1533959.3    297.45803 
   61500    313.27731   -66880.784    -55432.15   -64838.015   -420.44487    1533959.3    295.76343 
   61600    314.25444    -66421.41   -54937.066   -61799.329   -306.74512    1533959.3    222.34978 
   61700     312.6699   -65844.616   -54418.178   -59385.945   -222.06057    1533959.3    294.97116 
   61800    308.97444   -65140.039    -53848.65   -56289.254   -109.09566    1533959.3    301.21129 
   61900      312.374   -64645.249   -53229.625   -53371.976   -6.3631427    1533959.3    287.74168 
   62000    308.65581   -63831.196   -52551.452   -49638.376    130.21532    1533959.3    295.47756 
   62100    311.42363    -63228.74   -51847.847   -46275.107    249.10304    1533959.3    223.30653 
   62200    313.64068   -62607.605   -51145.691   -43367.476    347.68841    1533959.3    280.87051 
   62300    312.75055   -61834.946   -50405.561   -38968.918    511.22118    1533959.3    276.91316 
   62400    312.34478   -61050.332   -49635.776   -35952.867    611.62991    1533959.3    274.12282 
   62500    316.81464   -60537.353   -48959.447   -32877.109    718.88503    1533959.3    274.80837 
   62600    318.03543   -59857.108   -48234.589    -29403.97    841.73399    1533959.3    271.52133 
   62700    321.39246   -59296.305   -47551.104   -27645.383    889.79136    1533959.3     276.0671 
   62800    322.35635   -58696.285   -46915.859   -24482.992    1002.7555    1533959.3    273.73854 
   62900    328.65439   -58429.897   -46419.311   -23490.284     1024.934    1533959.3    276.23692 
   63000    331.47444   -58671.426   -46557.782   -23935.497    1011.2225    1533959.3    274.96781 
   63100    335.44253   -59637.252   -47378.595    -29007.08    821.21192    1533959.3    249.45055 
   63200     328.7366   -60116.217   -48102.626   -31682.478    733.98529    1533959.3    296.88828 
   63300    327.21148   -60721.758   -48763.902   -35038.255    613.54035    1533959.3    294.18518 
   63400    328.14899   -61398.701   -49406.585   -38407.517    491.66144    1533959.3    287.28956 
   63500     326.8291   -61903.833   -49959.952   -40571.385     419.6716    1533959.3    294.27414 
   63600     327.3672   -62394.175   -50430.628   -43228.055    321.95709    1533959.3    293.30777 
   63700    327.05823   -62804.483   -50852.228   -45528.057    237.99196    1533959.3    294.14866 
   63800    324.33559   -63096.714   -51243.957   -46947.392    192.05771    1533959.3    290.42666 
   63900    317.71651   -63202.995   -51592.131   -47451.786     185.0746    1533959.3    291.73749 
   64000    322.58682   -63674.869    -51886.02   -49289.712    116.05572    1533959.3    285.40039 
   64100     322.2099   -63921.685   -52146.611   -50647.961     66.99008    1533959.3    290.26064 
   64200    325.58543    -64349.66   -52451.228   -52630.554   -8.0159111    1533959.3    298.90438 
   64300    327.66967   -64724.064   -52749.464   -54593.863   -82.445158    1533959.3    302.31571 
   64400    324.09544    -64908.34   -53064.359    -55518.26   -109.69004    1533959.3    298.25907 
   64500    329.61216   -65377.685   -53332.097    -57826.02   -200.87962    1533959.3    299.63638 
   64600    319.99364    -65331.46   -53637.378   -57417.799   -168.98587    1533959.3    239.10572 
   64700    329.17305   -65887.404   -53857.863   -60539.446   -298.66862    1533959.3    301.11398 
   64800    327.19456   -66104.521   -54147.283    -61678.63   -336.65334    1533959.3    299.62824 
   64900    328.72974    -66405.65    -54392.31   -63189.744   -393.24782    1533959.3    299.42995 
   65000    328.73064   -66651.556   -54638.183   -64375.576   -435.26418    1533959.3    291.96656 
   65100    325.60576   -66819.042   -54919.867   -65160.283   -457.74951    1533959.3    241.94855 
   65200    326.98453   -67095.824   -55146.262   -66061.152   -487.89864    1533959.3    298.17447 
   65300    322.56309    -67223.09   -55435.109   -66488.281   -494.07995    1533959.3      304.116 
   65400    330.03856   -67643.002   -55581.831   -68216.687   -564.78162    1533959.3    302.27911 
   65500    322.93463   -67681.643   -55880.084   -69047.922   -588.60611    1533959.3    305.04073 
   65600    328.02688    -68004.38   -56016.725   -70319.344    -639.3311    1533959.3    268.92563 
   65700    324.87624   -68143.694    -56271.18   -71048.271   -660.54018    1533959.3     305.5031 
   65800    321.07589   -68232.849   -56499.217   -71610.037   -675.45796    1533959.3    301.52918 
   65900    328.18123   -68528.908   -56535.613   -72707.824    -722.9024    1533959.3    299.44406 
   66000    331.62509   -68840.647   -56721.498   -74127.862   -778.06943    1533959.3    299.16576 
   66100    327.23013   -68971.959   -57013.422   -74512.312   -782.20535    1533959.3    228.34595 
   66200    326.07819   -69128.444   -57212.004   -75476.957   -816.44859    1533959.3    305.83925 
   66300    323.42457    -69153.48   -57334.016    -75750.69   -823.23052    1533959.3    304.62467 
   66400    322.65851   -69222.681   -57431.213   -75259.668   -796.93698    1533959.3    304.29449 
   66500    322.61844   -69265.139   -57475.134   -76136.507   -834.16865    1533959.3    304.59282 
   66600    302.73201   -68618.306   -57555.047   -73499.138   -712.70538    1533959.3     235.2919 
   66700      306.791   -68412.479   -57200.885   -72704.305   -693.00726    1533959.3    300.92301 
   66800    300.29326   -67805.649   -56831.512   -69767.466   -578.24078    1533959.3    308.11042 
   66900    307.95254   -67542.352   -56288.309   -68176.283   -531.39578    1533959.3    303.40916 
   67000     310.8859   -67096.907   -55735.665   -66074.418   -462.14517    1533959.3    295.83603 
   67100    312.32565   -66585.343   -55171.486   -63053.377   -352.32275    1533959.3    233.58762 
   67200    310.42596   -65940.518   -54596.085   -59887.472   -236.52651    1533959.3    293.11058 
   67300     311.9854   -65388.499   -53987.076   -57171.095   -142.32656    1533959.3    279.35693 
   67400    309.83521   -64675.457   -53352.612   -53237.841    5.1303089    1533959.3    282.75756 
   67500    311.80818   -64071.056    -52676.11   -51057.511    72.351807    1533959.3    288.19424 
   67600    308.94446   -63202.641   -51912.349   -45862.863    270.41374    1533959.3    278.45854 
   67700    312.45238   -62578.586   -51160.098   -42948.012    367.08257    1533959.3    275.52233 
   67800    316.81556   -62011.055   -50433.116   -38643.498    526.99926    1533959.3    277.97613 
   67900    316.46287   -61220.469   -49655.418   -35477.764    633.74515    1533959.3    283.20278 
   68000    313.14858   -60279.796   -48835.866   -32375.094    735.80115    1533959.3    275.68332 
   68100    316.26109   -59693.058   -48135.381   -28830.956    862.91329    1533959.3    285.41592 
   68200    315.49949   -58892.327   -47362.483   -25084.831    995.81732    1533959.3    289.87428 
   68300    320.51307   -58455.126   -46742.062    -23323.93    1046.7971    1533959.3    283.06326 
   68400    336.61652   -58754.899   -46453.338   -23684.868    1017.7571    1533959.3    285.39534 
   68500    323.29346   -58308.966   -46494.293   -21936.127     1097.757    1533959.3    290.38041 
   68600    334.88585   -59732.287   -47493.974   -29579.536    800.78044    1533959.3    169.65973 
   68700    330.31402   -60283.569   -48212.332   -32088.815    720.72577    1533959.3    289.25736 
   68800    325.40106   -60744.361   -48852.667   -34555.149    639.10311    1533959.3    288.59936 
   68900    326.28911   -61379.443   -49455.295   -37759.818    522.79112    1533959.3    288.03175 
   69000    329.26473   -62018.635   -49985.744   -40657.998    416.95287    1533959.3    288.47034 
   69100    306.45228   -61398.765   -50199.549   -39111.896    495.62124    1533959.3    185.57044 
   69200    325.56493   -62381.749   -50484.066   -42662.156    349.64162    1533959.3    278.40346 
   69300    323.53988   -62648.561   -50824.883   -44229.284    294.82516    1533959.3    278.28413 
   69400    326.13633   -62949.744   -51031.179   -45578.449    243.73858    1533959.3    272.02585 
   69500    329.03531   -63312.105   -51287.598   -47437.386    172.10558    1533959.3    265.54429 
   69600    323.43504   -63537.891   -51718.044   -48273.622    153.96663    1533959.3    273.43249 
   69700    313.01297   -63442.837   -52003.863   -48932.651    137.28404    1533959.3    278.05113 
   69800    328.20271   -64160.782   -52166.702   -51047.145    50.044535    1533959.3    278.08136 
   69900    323.49444   -64319.799   -52497.782   -52779.717   -12.602588    1533959.3    285.10512 
   70000    328.85529    -64859.44   -52841.512   -55040.823    -98.30982    1533959.3    287.42225 
   70100    326.08172   -65062.807   -53146.238   -56423.061   -146.47489    1533959.3    224.26159 
   70200    328.60693   -65421.257   -53412.405   -58035.721   -206.66352    1533959.3    218.03634 
   70300    322.87171   -65497.072   -53697.813   -58974.942   -235.88916    1533959.3     210.5383 
   70400    327.16485   -65849.867   -53893.716   -59635.274   -256.64926    1533959.3    228.22195 
   70500    323.38382   -65989.711   -54171.736   -60735.656   -293.40905    1533959.3    239.46187 
   70600    322.08976   -66190.941   -54420.257   -61709.984   -325.85287    1533959.3    272.61851 
   70700    321.30447   -66427.208   -54685.223   -63887.263   -411.33381    1533959.3    269.60793 
   70800    324.21701   -66745.354   -54896.931   -64256.855   -418.39125    1533959.3    272.98598 
   70900    326.59346    -67046.62   -55111.349   -65932.334   -483.70109    1533959.3    287.36297 
   71000    307.69139    -66576.76   -55332.261    -64077.83   -390.92942    1533959.3    268.32881 
   71100    333.41687   -67240.663   -55056.033   -65834.813    -481.8145    1533959.3    292.15508 
   71200    328.84482    -67379.66   -55362.114   -66816.855   -512.03017    1533959.3    294.29437 
   71300    327.00122   -67593.661    -55643.49   -68362.475   -568.54225    1533959.3    292.42579 
   71400    327.31088   -67821.498    -55860.01   -69494.487   -609.46495    1533959.3    303.72884 
   71500    326.43749   -68002.352   -56072.782   -70266.277   -634.45326    1533959.3    300.45825 
   71600      327.391   -68224.601   -56260.185   -71149.009   -665.53464    1533959.3    249.08642 
   71700    328.73764   -68459.698    -56446.07   -72159.887   -702.41208    1533959.3    282.10258 
   71800    329.32174    -68679.41   -56644.436   -73152.089   -737.89678    1533959.3    288.35155 
   71900    323.36626   -68716.331   -56898.999   -72962.943   -718.06285    1533959.3     290.8633 
   72000     321.6171   -68780.416   -57027.005   -73780.513   -748.88656    1533959.3    284.16366 
   72100    322.54026   -68790.132   -57002.984   -73599.157   -741.85362    1533959.3    250.32356 
   72200     308.4384   -68118.039   -56846.241   -70671.702   -618.00203    1533959.3    283.69028 
   72300    306.34033   -67651.682   -56456.557   -68466.538   -536.84955    1533959.3    251.71105 
   72400    309.03006   -67259.399   -55965.979   -66475.112    -469.7612    1533959.3    280.23136 
[...]
  281000     337.3659   -58550.844   -46221.898   -24383.777    976.17021    1533959.3    286.38761 
  281100    334.30767   -58845.216   -46628.032   -25747.904    933.34762    1533959.3    269.34355 
  281200    330.82578   -59519.182   -47429.243    -30206.39    769.86639    1533959.3    284.23954 
  281300     326.6191   -60019.292   -48083.085   -32801.786    683.07839    1533959.3    294.71394 
  281400    326.15478   -60589.104   -48669.865   -35243.171    600.17705    1533959.3    287.59016 
  281500    321.40711    -60860.91   -49115.174   -37364.428    525.26167    1533959.3    290.88892 
  281600    321.55225   -61279.506   -49528.466   -39301.716    457.13859    1533959.3    290.07455 
  281700    324.00557   -61675.316    -49834.62   -40950.099    397.14058    1533959.3    291.00638 
  281800    324.35717   -61947.737   -50094.191   -42443.363    341.99418    1533959.3     295.0662 
  281900    327.62106   -62477.319   -50504.496   -45278.747    233.59242    1533959.3     294.9975 
  282000    328.81319   -63057.055   -51040.665    -47544.31    156.28809    1533959.3    292.29333 
  282100    322.80847   -63293.761   -51496.812   -48945.481    114.04519    1533959.3    207.00591 
  282200    325.12102   -63736.458   -51854.998   -51133.004    32.273309    1533959.3     273.8878 
  282300    330.41726   -64238.473   -52163.463   -53616.878   -64.968036    1533959.3    258.17441 
  282400    332.39052   -64660.622     -52513.5   -54381.808   -83.513891    1533959.3    273.30332 
  282500    325.65823   -64846.828   -52945.736   -56107.754    -141.3431    1533959.3    283.74344 
  282600    323.06566   -65092.759   -53286.411   -57672.756   -196.07085    1533959.3    294.41377 
  282700    324.31381   -65400.119   -53548.158   -59295.546   -256.90988    1533959.3    292.41743 
  282800    327.97795     -65787.3   -53801.434   -60546.476   -301.50526    1533959.3    274.98962 
  282900    332.98876   -66212.047   -54043.062   -62469.094   -376.64599    1533959.3    275.01541 
  283000     323.7279   -66302.237   -54471.688   -63190.693   -389.74199    1533959.3    292.12863 
  283100    323.07169   -66546.486   -54739.918   -64369.731   -430.45537    1533959.3    249.29873 
  283200    321.78102   -66712.177   -54952.776   -65361.053   -465.25291    1533959.3    316.88607 
  283300    315.55911   -66593.247   -55061.225   -64960.617   -442.50565    1533959.3    278.47777 
  283400    329.09593    -66882.88   -54856.157   -65622.299   -481.24956    1533959.3    312.93023 
  283500    326.63685   -67059.372   -55122.516       -66436   -505.71593    1533959.3    279.05769 
  283600    323.04161   -67209.995   -55404.527    -67315.04   -532.40333    1533959.3    256.72093 
  283700    324.66057   -67423.048   -55558.415    -68075.23   -559.50516    1533959.3    293.42719 
  283800    327.09554   -67655.869   -55702.251   -68925.787   -591.09584    1533959.3    293.37649 
  283900    323.33392    -67759.01   -55942.859   -69722.371    -615.9481    1533959.3    283.10644 
  284000    324.07835   -67896.458   -56053.102    -70362.67   -639.64175    1533959.3    289.83822 
  284100     327.4153   -68148.836   -56183.532   -70467.564   -638.50026    1533959.3    267.56572 
  284200    326.77754   -68306.495   -56364.497   -71729.574   -686.82328    1533959.3    285.27576 
  284300    326.47402   -68447.116   -56516.211   -72223.609   -702.12514    1533959.3    270.29665 
  284400    329.94811   -68714.682   -56656.817   -74093.685   -779.43295    1533959.3    248.84037 
  284500    332.43566   -68930.257   -56781.485   -74539.674   -793.79609    1533959.3    269.40878 
  284600    324.02114   -68895.097   -57053.831   -74789.233   -792.77746    1533959.3    273.44675 
  284700    324.49239    -69051.61   -57193.123   -75675.419   -826.16387    1533959.3    252.61657 
  284800    321.56062   -69066.455   -57315.109   -75829.122   -827.58161    1533959.3       237.44 
  284900    305.91925   -68473.066   -57293.329   -73924.697   -743.42686    1533959.3    284.70877 
  285000    299.22088   -67865.042   -56930.095     -70642.9   -612.96626    1533959.3    277.68517 
  285100    302.48008   -67453.078   -56399.024   -68595.212   -545.17305    1533959.3    267.36037 
  285200    306.06501   -66998.834    -55813.77   -66394.515   -472.96229    1533959.3    290.53569 
  285300      304.849   -66355.218   -55214.593   -62460.105   -323.87646    1533959.3     250.8321 
  285400    313.35681   -66008.677   -54557.137   -60607.229   -270.44082    1533959.3    259.49954 
  285500    317.28716   -65607.767   -54012.593   -58326.149   -192.81715    1533959.3    288.01435 
  285600    314.78482   -64948.032   -53444.306   -54451.191    -45.00805    1533959.3    285.17238 
  285700    319.87575    -64536.33   -52846.556   -53017.573   -7.6444713    1533959.3    296.34729 
  285800    317.37849   -63931.671   -52333.159    -50088.31     100.3454    1533959.3    280.87127 
  285900    315.95053   -63283.193   -51736.866   -46633.381    228.12723    1533959.3    285.13826 
  286000    316.05426    -62622.72   -51072.602   -44039.749    314.37049    1533959.3    282.56821 
  286100    317.82932   -62088.941   -50473.954     -40595.8     441.5563    1533959.3    264.94898 
  286200    315.97269   -61389.726   -49842.589   -37548.731     549.5389    1533959.3    297.84966 
  286300    310.77879   -60311.991   -48954.664   -32702.574    726.47301    1533959.3    296.55284 
  286400    318.51113   -59879.867   -48239.963   -30478.825    793.92789    1533959.3    298.79025 
  286500    318.48278   -59087.671   -47448.803   -26718.842    926.63514    1533959.3    294.78437 
  286600    320.84197   -58593.862   -46868.778   -23779.341    1032.1044    1533959.3    251.99642 
  286700    326.36468   -58326.668   -46399.758   -23308.478    1032.1868    1533959.3    286.57643 
  286800    335.08363   -58504.214   -46258.673     -24230.7    984.65662    1533959.3    284.96604 
  286900    337.53097   -59274.767   -46939.789   -28044.013    844.64651    1533959.3    288.17206 
  287000    333.08729    -59971.72   -47799.135   -31162.512    743.66174    1533959.3    272.38305 
  287100    328.80542   -60494.739   -48478.633   -34084.372    643.42755    1533959.3    265.21603 
  287200    326.71545   -61035.953   -49096.224   -37118.055    535.42756    1533959.3    270.91312 
  287300    326.77183   -61701.529    -49759.74   -40592.945    409.75836    1533959.3    299.14955 
  287400    325.06074    -62230.37   -50351.113   -43575.534     302.8703    1533959.3    287.77899 
  287500    326.94728   -62870.383   -50922.182   -46459.146    199.49899    1533959.3    295.26747 
  287600    322.64193   -63134.099   -51343.237    -47556.14    169.28431    1533959.3    299.40837 
  287700    321.13595   -63414.606   -51678.779   -49596.999    93.056176    1533959.3    293.92213 
  287800    310.51678   -63215.709   -51867.957   -48031.358    171.49705    1533959.3    295.17521 
  287900    324.35935   -63893.253   -52039.628   -51031.781    45.051058    1533959.3    298.64728 
  288000    327.41387   -64468.542    -52503.29   -53979.775   -65.999305    1533959.3    294.20953 
  288100    326.05708    -64818.32   -52902.652   -55358.988   -109.79891    1533959.3    254.81597 
  288200    322.79505   -65024.666   -53228.207   -56974.964   -167.48108    1533959.3    291.58679 
  288300    305.39444   -64566.695   -53406.137   -55416.342   -89.856716    1533959.3    282.16711 
  288400    310.30685   -64276.449   -52936.369   -53344.826   -18.258161    1533959.3     291.5495 
  288500    310.77087   -63692.986   -52335.948   -49915.365    108.20072    1533959.3    295.76593 
  288600    307.78641   -62899.031   -51651.059    -46320.09     238.2958    1533959.3    289.84343 
  288700    308.38403   -62169.233   -50899.422   -42701.796     366.4362    1533959.3    288.78118 
  288800    318.77035   -61941.017    -50291.64   -40884.816     420.4877    1533959.3    276.00515 
  288900    315.47303   -61101.872   -49572.995   -37279.766    549.51079    1533959.3     282.3048 
  289000    313.26992   -60298.344   -48849.979    -33189.38    700.03319    1533959.3    277.14115 
  289100    314.02284   -59609.283   -48133.403   -30422.804    791.66877    1533959.3    256.66233 
  289200    317.34934   -59062.758   -47465.312   -27656.606    885.45475    1533959.3    286.55685 
  289300    316.63226   -58384.467   -46813.227   -24163.453    1012.4513    1533959.3    290.37679 
  289400    325.58813   -58330.697   -46432.166   -24320.345    988.40468    1533959.3    281.94026 
  289500    340.46071   -59027.412   -46585.367   -26014.703     919.5145    1533959.3    273.54769 
  289600     335.5651   -59589.121   -47325.985   -29139.476    812.94209    1533959.3    271.15411 
  289700    334.48235   -60355.337    -48131.77   -33624.361    648.48528    1533959.3    279.91679 
  289800    329.89617   -60867.386   -48811.419   -36232.783    562.26859    1533959.3    279.73123 
  289900    328.31914   -61467.104    -49468.77   -39063.276    465.12851    1533959.3    281.62204 
  290000    327.13917   -61997.979   -50042.766   -41928.827    362.69536    1533959.3    271.92233 
  290100    327.34725   -62537.121   -50574.304   -44928.944    252.34916    1533959.3    252.31689 
  290200    328.01496   -63033.343   -51046.124   -47075.371    177.49378    1533959.3    257.19966 
  290300    318.81371   -63054.415   -51403.454   -47651.889    167.69603    1533959.3    273.93055 
  290400    319.96331   -63284.268   -51591.295   -48602.688    133.59156    1533959.3    289.66528 
  290500    323.37824   -63663.438   -51845.667   -50384.542    65.312687    1533959.3    296.33494 
  290600    327.19696   -64197.918   -52240.593    -52798.79   -24.951572    1533959.3    297.52703 
  290700    318.96806   -64286.518   -52629.916    -53537.27   -40.558974    1533959.3    289.53191 
  290800    337.03738   -65334.222   -53017.282   -56984.713    -177.3453    1533959.3    296.86811 
  290900    329.79245   -65592.591   -53540.414   -59534.903   -267.95533    1533959.3    295.18809 
  291000    324.58575   -65819.061   -53957.162   -60643.339   -298.87402    1533959.3    293.60568 
  291100    324.69001   -66136.543   -54270.834   -62747.479   -378.90839    1533959.3    198.69103 
  291200     321.8763   -66292.189   -54529.307   -63339.856   -393.83404    1533959.3    251.47486 
  291300    326.35415   -66684.599   -54758.075   -64823.716   -449.93704    1533959.3    275.82093 
  291400    327.16318   -66988.389   -55032.299   -65787.918   -480.77925    1533959.3     272.6809 
  291500    325.86283    -67233.98   -55325.411   -67427.501   -540.96685    1533959.3    288.93814 
  291600    325.46906   -67514.413   -55620.233    -68430.63   -572.62836    1533959.3    279.09872 
  291700     322.6825   -67676.616   -55884.271   -69178.227    -594.2436    1533959.3    289.19214 
  291800    323.21351    -67878.65     -56066.9   -70477.802    -644.1714    1533959.3    307.46242 
  291900    331.30045   -68261.584   -56154.298   -71574.073   -689.26829    1533959.3    296.32615 
  292000    331.33686   -68525.719   -56417.102   -72743.827   -729.80921    1533959.3    277.05346 
  292100    328.84073   -68748.564   -56731.168   -74218.608   -781.69353    1533959.3    233.31073 
  292200    323.47433   -68846.509   -57025.226   -74728.353   -791.33476    1533959.3     231.9766 
  292300    320.02271   -68939.901   -57244.757   -75508.568    -816.3975    1533959.3    294.83223 
  292400    314.62749   -68885.657    -57387.68   -75350.606   -802.94788    1533959.3    278.66408 
  292500    306.41724   -68527.333   -57329.398    -74347.41   -760.70997    1533959.3    288.41718 
  292600    314.19466   -68385.623   -56903.464   -73253.737   -730.86183    1533959.3    292.07818 
  292700    312.36155   -67964.515   -56549.346   -70669.652    -631.1817    1533959.3    287.31927 
  292800     309.7973   -67443.134   -56121.675   -68224.818   -541.01394    1533959.3    295.94102 
  292900    312.60452   -67041.254   -55617.205   -66026.972   -465.31951    1533959.3    262.91582 
  293000    313.75632   -66576.993   -55110.853    -63843.16   -390.33662    1533959.3    257.08001 
  293100    314.30567   -66095.619   -54609.403    -60638.64   -269.50861    1533959.3    255.38865 
  293200    314.68639   -65551.399   -54051.269   -58156.405   -183.50076    1533959.3    283.55928 
  293300    319.98454   -65219.141   -53525.393    -56380.14   -127.60801    1533959.3     297.0363 
  293400    320.37126   -64779.977   -53072.095   -53584.966   -22.925475    1533959.3    285.10415 
  293500    324.30182   -64536.858   -52685.335   -52081.399    26.996085    1533959.3    283.09937 
  293600    318.14719   -63859.169   -52232.565   -49227.619    134.32192    1533959.3    284.33897 
  293700    309.51338   -62906.915   -51595.832   -45750.072    261.30711    1533959.3    280.80263 
  293800    314.12656    -62380.12    -50900.45   -42805.822    361.83214    1533959.3    271.27758 
  293900    314.72232   -61679.981   -50178.538   -39261.928    487.97556    1533959.3    260.39496 
  294000    316.34211   -61080.075   -49519.437   -36259.231    592.73498    1533959.3    275.71993 
  294100    320.28397   -60656.604   -48951.912   -33951.316    670.53088    1533959.3    247.44748 
  294200    318.73675   -59976.519   -48328.371   -30526.898    795.73088    1533959.3    287.88743 
  294300    331.21007   -60058.277   -47954.294   -31012.852    757.28727    1533959.3    288.69372 
  294400    317.62898   -58981.578   -47373.913   -26535.244    931.49437    1533959.3    283.18251 
  294500    318.82638   -58708.851   -47057.427   -24669.668    1000.7392    1533959.3    284.94184 
  294600    335.89003   -59246.645   -46971.634   -26895.557    897.40632    1533959.3    289.37271 
  294700    321.26813   -58653.827   -46913.169   -25541.127     955.3363    1533959.3    284.67882 
  294800    335.70839   -59970.094   -47701.721   -30187.206    782.90378    1533959.3    283.10644 
  294900    335.24979   -60739.719   -48488.105   -35397.407    585.15791    1533959.3     282.5427 
  295000    330.08759   -61212.358   -49149.396   -36898.067     547.6379    1533959.3    280.32238 
  295100    327.52774   -61745.239   -49775.826   -39959.164    438.80754    1533959.3    275.02064 
  295200    324.84733   -62214.984   -50343.526   -42980.924    329.11038    1533959.3    289.05662 
  295300    324.80511   -62722.123   -50852.207   -45315.346    247.49928    1533959.3    289.91736 
  295400    321.69083   -63023.088   -51266.983   -47076.119    187.33282    1533959.3    293.86014 
  295500     323.3389   -63445.823    -51629.49   -48771.329    127.76062    1533959.3    290.43591 
  295600    326.41702   -63867.651   -51938.828   -51255.421    30.548512    1533959.3    241.70233 
  295700    324.91813   -64183.188   -52309.142   -52306.036   0.13883663    1533959.3    300.11191 
  295800    333.19064   -64899.663     -52723.3   -55309.879   -115.62083    1533959.3    295.26228 
  295900    329.51249   -65204.543   -53162.597   -57635.548   -199.94218    1533959.3    290.65549 
  296000    327.37134   -65548.036   -53584.338   -59406.705   -260.26144    1533959.3    290.76953 
  296100    325.64055   -65817.305   -53916.858    -60609.89   -299.18043    1533959.3    282.49303 
  296200    326.14504   -66137.003    -54218.12   -61972.096   -346.60494    1533959.3    263.56494 
  296300     324.4597   -66336.799   -54479.506   -62569.077   -361.60612    1533959.3    248.61838 
  296400    323.34391   -66543.646    -54727.13    -64208.55   -423.82217    1533959.3    288.61108 
  296500    326.60786   -66885.999   -54950.203   -65813.152    -485.5769    1533959.3    292.33101 
  296600    323.83508   -67059.807   -55225.341   -66232.104   -492.00544    1533959.3    283.23625 
  296700    328.88937    -67442.93   -55423.756   -68652.735   -591.33911    1533959.3     274.8651 
  296800    327.10852    -67618.27   -55664.177   -69291.316   -609.13697    1533959.3    272.48621 
  296900    325.51491   -67804.335    -55908.48   -69827.919   -622.20283    1533959.3    272.39349 
  297000    322.10311   -67929.028   -56157.856    -70473.95   -639.93342    1533959.3    290.01137 
  297100     326.8909   -68267.095   -56320.955   -72273.141   -713.06723    1533959.3    281.47764 
  297200    328.82085   -68549.788   -56533.118   -73382.331   -753.16459    1533959.3    275.99298 
  297300    328.35609   -68755.674   -56755.989    -74195.06   -779.53141    1533959.3    276.01587 
  297400    323.52244   -68851.602   -57028.561   -75190.403   -811.83946    1533959.3    279.37795 
  297500    320.82867   -68986.617    -57262.02   -75674.406   -823.03887    1533959.3    284.63187 
  297600    321.01465   -69122.798   -57391.404   -75997.334   -831.69035    1533959.3    303.29968 
  297700    305.51561   -68532.511   -57367.525   -73743.838   -732.02582    1533959.3    303.17187 
  297800    304.17833   -68110.134   -56994.019   -71563.352   -651.25332    1533959.3     295.2708 
  297900     310.6596   -67881.379   -56528.408   -70073.988   -605.49128    1533959.3    296.32887 
  298000    312.44472   -67477.173   -56058.965   -67877.177   -528.27745    1533959.3    295.95522 
  298100     312.7848   -67009.453   -55578.817   -65376.459   -437.95737    1533959.3    219.80191 
  298200    310.48153   -66427.616   -55081.152   -62066.936   -312.26653    1533959.3    297.22995 
  298300    312.46861   -65954.577   -54535.496   -59880.084   -238.90463    1533959.3    280.81523 
  298400    310.08491   -65300.657   -53968.687   -57586.261   -161.70658    1533959.3    285.48994 
  298500    313.37416   -64846.055    -53393.88   -54384.031   -44.260009    1533959.3    294.91827 
  298600    316.91402   -64441.576   -52860.038   -52245.353    27.476608    1533959.3    281.34302 
  298700    316.40372   -63907.547   -52344.658    -49756.98    115.66993    1533959.3    276.63355 
  298800    312.58229   -63173.737   -51750.501   -46272.858    244.85218    1533959.3    277.22413 
  298900     313.0498   -62469.393   -51029.072   -42994.278    359.15755    1533959.3    275.58461 
  299000    313.84428   -61797.436   -50328.081   -39124.224    500.81556    1533959.3    287.31337 
  299100    320.51432   -61437.505   -49724.395   -37355.757    552.88165    1533959.3    264.78005 
  299200    316.92394   -60620.969   -49039.069   -33430.729    697.69722    1533959.3    288.89296 
  299300    315.86661   -59990.313   -48447.052   -30401.816    806.62717    1533959.3    281.01485 
  299400    317.58377   -59448.433    -47842.42   -27976.745     888.0013    1533959.3     272.5992 
  299500    317.05501   -58858.712   -47272.022   -25157.568    988.52236    1533959.3     279.4256 
  299600    319.01169   -58332.867   -46674.671   -22724.472    1070.5807    1533959.3    286.91597 
  299700    326.56188   -58216.475   -46282.359   -23018.249    1039.9123    1533959.3    286.97289 
  299800    334.51094   -58645.086   -46420.473   -24307.407    988.46032    1533959.3    285.18305 
  299900    337.49488   -59627.478   -47293.818    -29123.25    812.22956    1533959.3     290.7391 
  300000    333.42529   -60260.691   -48075.753   -32578.066    692.75099    1533959.3    262.25579 
Loop time of 1076.05 on 8 procs for 300000 steps with 12261 atoms

Pair  time (%) = 735.589 (68.36)
Bond  time (%) = 15.6931 (1.4584)
Neigh time (%) = 123.329 (11.4612)
Comm  time (%) = 158.705 (14.7488)
Outpt time (%) = 1.3925 (0.129408)
Other time (%) = 41.3425 (3.84206)

Nlocal:    1532.62 ave 1656 max 1406 min
Histogram: 2 2 0 0 0 0 0 0 1 3
Nghost:    3496.25 ave 3570 max 3401 min
Histogram: 2 0 1 0 1 0 0 0 0 4
Neighs:    69662 ave 79247 max 60764 min
Histogram: 2 2 0 0 0 0 0 1 1 2

Total # of neighbors = 557296
Ave neighs/atom = 45.4527
Ave special neighs/atom = 0.69978
Neighbor list builds = 30000
Dangerous builds = 29997
#       steps nevery T0 fixname seed1 seed2 EX_flag $w_list-of-walkers

