LAMMPS (10 Jun 2014)
Running on 2 partitions of processors
Setting up tempering ...
Step T0 T1
0 0 1
500 0 1
1000 0 1
1500 0 1
2000 0 1
2500 0 1
3000 0 1
3500 0 1
4000 0 1
4500 0 1
5000 0 1
5500 0 1
6000 0 1
6500 0 1
7000 0 1
7500 0 1
8000 0 1
8500 0 1
9000 0 1
9500 0 1
10000 0 1
10500 0 1
11000 0 1
11500 0 1
12000 0 1
12500 0 1
13000 0 1
13500 0 1
14000 0 1
14500 0 1
15000 0 1
15500 0 1
16000 0 1
16500 0 1
17000 0 1
17500 0 1
18000 0 1
18500 0 1
19000 0 1
19500 0 1
20000 0 1
20500 0 1
21000 0 1
Exchange Info, print out 238 local_values before swap: 0.619195 0.619195 0.619195 0.619195 0.619195 0.619195 0.619195 0.619195 0.619195 0.619195 0.619195 0.619195 0.619195 0.619195 0.619195 0.619195 0.619195 0.619195 0.619195 0.619195 0.619195 0.619195 0.619195 0.619195 0.619195 0.619195 0.619195 0.619195 0.619195 0.619195 0.619195 0.619195 0.619195 0.619195 0.619195 0.619195 0.619195 0.619195 0.619195 0.619195 0.619195 0.619195 0.629066 0.711673 0.674423 0.713523 0.730446 0.749523 0.781532 0.786398 0.812194 0.815869 0.836403 0.848202 0.883823 0.894465 0.922565 0.937637 0.973040 0.969305 1.004784 1.017741 1.048154 1.058700 1.089764 1.109878 1.130750 1.138908 1.151369 1.131763 1.200633 1.232267 1.228671 1.273271 1.298142 1.302157 1.268156 1.291503 1.391097 1.381962 1.405028 1.412888 1.458585 1.503745 1.529241 1.547988 1.547988 1.547988 1.547988 1.547988 1.547988 1.547988 1.547988 1.547988 1.547988 1.547988 1.547988 1.547988 1.547988 1.547988 1.547988 1.547988 1.547988 1.547988 1.547988 1.547988 1.547988 1.547988 1.547988 1.547988 1.547988 1.547988 1.547988 1.547988 1.547988 1.547988 1.547988 1.547988 1.547988 1.547988 1.547988 1.547988 1.547988 1.547988 1.547988 1.547988 1.547988 1.547988 1.547988 1.547988 1.547988 1.547988 1.547988 1.547988 1.547988 1.547988 1.547988 1.547988 1.547988 1.547988 1.547988 1.547988 1.547988 1.547988 1.547988 1.547988 1.547988 1.547988 1.547988 1.547988 1.547988 1.547988 1.547988 1.547988 1.547988 1.547988 1.547988 1.547988 1.547988 1.547988 1.547988 1.547988 1.547988 1.547988 1.547988 1.547988 1.547988 1.547988 1.547988 1.547988 1.547988 1.547988 1.547988 1.547988 1.547988 1.547988 1.547988 1.547988 1.547988 1.547988 1.547988 1.547988 1.547988 1.547988 1.547988 1.547988 1.547988 1.547988 1.547988 1.547988 1.547988 1.547988 1.547988 1.547988 1.547988 1.547988 1.547988 1.547988 1.547988 1.547988 1.547988 1.547988 1.547988 1.547988 1.547988 1.547988 1.547988 1.547988 1.547988 1.547988 1.547988 1.547988 1.547988 1.547988 1.547988 1.547988 1.547988 1.547988 1.547988 1.547988 1.547988 1.547988 1.547988 1.547988 1.547988 1.547988 1.547988 1.547988 1.547988 1.547988 1.547988 1.547988 1.547988 1.547988 1.547988 1.547988 200.000000 500.000000 
Exchange Info, print out 238 local_values after swap: 0.650155 0.650155 0.650155 0.650155 0.650155 0.650155 0.650155 0.650155 0.650155 0.650155 0.650155 0.650155 0.650155 0.650155 0.650155 0.650155 0.650155 0.650155 0.650155 0.650155 0.650155 0.650155 0.650155 0.650155 0.650155 0.650155 0.650155 0.650155 0.650155 0.650155 0.650155 0.650155 0.650155 0.650155 0.650155 0.650155 0.650155 0.650155 0.650155 0.650155 0.650155 0.650155 0.650155 0.650155 0.650155 0.661739 0.698722 0.738561 0.737267 0.766351 0.764959 0.801368 0.808551 0.841977 0.852781 0.874031 0.892565 0.919874 0.939027 0.961185 0.981354 1.016918 1.018558 1.049020 1.078589 1.094482 1.106955 1.139931 1.155579 1.194946 1.210990 1.240737 1.249329 1.269425 1.281015 1.319844 1.317091 1.282315 1.355257 1.403458 1.417638 1.440276 1.448537 1.424034 1.479077 1.534807 1.505529 1.578947 1.578947 1.578947 1.578947 1.578947 1.578947 1.578947 1.578947 1.578947 1.578947 1.578947 1.578947 1.578947 1.578947 1.578947 1.578947 1.578947 1.578947 1.578947 1.578947 1.578947 1.578947 1.578947 1.578947 1.578947 1.578947 1.578947 1.578947 1.578947 1.578947 1.578947 1.578947 1.578947 1.578947 1.578947 1.578947 1.578947 1.578947 1.578947 1.578947 1.578947 1.578947 1.578947 1.578947 1.578947 1.578947 1.578947 1.578947 1.578947 1.578947 1.578947 1.578947 1.578947 1.578947 1.578947 1.578947 1.578947 1.578947 1.578947 1.578947 1.578947 1.578947 1.578947 1.578947 1.578947 1.578947 1.578947 1.578947 1.578947 1.578947 1.578947 1.578947 1.578947 1.578947 1.578947 1.578947 1.578947 1.578947 1.578947 1.578947 1.578947 1.578947 1.578947 1.578947 1.578947 1.578947 1.578947 1.578947 1.578947 1.578947 1.578947 1.578947 1.578947 1.578947 1.578947 1.578947 1.578947 1.578947 1.578947 1.578947 1.578947 1.578947 1.578947 1.578947 1.578947 1.578947 1.578947 1.578947 1.578947 1.578947 1.578947 1.578947 1.578947 1.578947 1.578947 1.578947 1.578947 1.578947 1.578947 1.578947 1.578947 1.578947 1.578947 1.578947 1.578947 1.578947 1.578947 1.578947 1.578947 1.578947 1.578947 1.578947 1.578947 1.578947 1.578947 1.578947 1.578947 1.578947 1.578947 1.578947 1.578947 1.578947 1.578947 1.578947 1.578947 1.578947 1.578947 1.578947 1.578947 210.000000 510.000000 
21500 1 0
22000 1 0
22500 1 0
23000 1 0
23500 1 0
24000 1 0
24500 1 0
25000 1 0
25500 1 0
26000 1 0
26500 1 0
27000 1 0
27500 1 0
28000 1 0
28500 1 0
29000 1 0
29500 1 0
30000 1 0
Exchange Info, print out 238 local_values before swap: 0.650155 0.650155 0.650155 0.650155 0.650155 0.650155 0.650155 0.650155 0.650155 0.650155 0.650155 0.650155 0.650155 0.650155 0.650155 0.650155 0.650155 0.650155 0.650155 0.650155 0.650155 0.650155 0.650155 0.650155 0.650155 0.650155 0.650155 0.650155 0.650155 0.650155 0.650155 0.650155 0.650155 0.650155 0.650155 0.650155 0.650155 0.650155 0.650155 0.650155 0.650155 0.619195 0.619195 0.665537 0.668748 0.689564 0.717378 0.728337 0.734694 0.773865 0.791820 0.842540 0.833639 0.847060 0.854513 0.881351 0.893829 0.933474 0.959724 0.982881 0.987494 1.008794 1.027676 1.056039 1.078589 1.104052 1.131758 1.135830 1.152415 1.183744 1.222716 1.263076 1.260554 1.286234 1.296802 1.312983 1.365516 1.380444 1.380444 1.406585 1.414462 1.441921 1.438635 1.477347 1.435373 1.527391 1.547988 1.547988 1.578947 1.578947 1.578947 1.578947 1.578947 1.578947 1.578947 1.578947 1.578947 1.578947 1.578947 1.578947 1.578947 1.578947 1.578947 1.578947 1.578947 1.578947 1.578947 1.578947 1.578947 1.578947 1.578947 1.578947 1.578947 1.578947 1.578947 1.578947 1.578947 1.578947 1.578947 1.578947 1.578947 1.578947 1.578947 1.578947 1.578947 1.578947 1.578947 1.578947 1.578947 1.578947 1.578947 1.578947 1.578947 1.578947 1.578947 1.578947 1.578947 1.578947 1.578947 1.578947 1.578947 1.578947 1.578947 1.578947 1.578947 1.578947 1.578947 1.578947 1.578947 1.578947 1.578947 1.578947 1.578947 1.578947 1.578947 1.578947 1.578947 1.578947 1.578947 1.578947 1.578947 1.578947 1.578947 1.578947 1.578947 1.578947 1.578947 1.578947 1.578947 1.578947 1.578947 1.578947 1.578947 1.578947 1.578947 1.578947 1.578947 1.578947 1.578947 1.578947 1.578947 1.578947 1.578947 1.578947 1.578947 1.578947 1.578947 1.578947 1.578947 1.578947 1.578947 1.578947 1.578947 1.578947 1.578947 1.578947 1.578947 1.578947 1.578947 1.578947 1.578947 1.578947 1.578947 1.578947 1.578947 1.578947 1.578947 1.578947 1.578947 1.578947 1.578947 1.578947 1.578947 1.578947 1.578947 1.578947 1.578947 1.578947 1.578947 1.578947 1.578947 1.578947 1.578947 1.578947 1.578947 1.578947 1.578947 1.578947 1.578947 1.578947 1.578947 1.578947 1.578947 1.578947 1.578947 1.578947 210.000000 510.000000 
Exchange Info, print out 238 local_values after swap: 0.619195 0.619195 0.619195 0.619195 0.619195 0.619195 0.619195 0.619195 0.619195 0.619195 0.619195 0.619195 0.619195 0.619195 0.619195 0.619195 0.619195 0.619195 0.619195 0.619195 0.619195 0.619195 0.619195 0.619195 0.619195 0.619195 0.619195 0.619195 0.619195 0.619195 0.619195 0.619195 0.619195 0.619195 0.619195 0.619195 0.619195 0.619195 0.619195 0.619195 0.619195 0.619195 0.629066 0.711673 0.674423 0.713523 0.730446 0.749523 0.781532 0.786398 0.812194 0.815869 0.836403 0.848202 0.848772 0.829263 0.886303 0.933478 0.970795 0.993714 1.007992 0.992932 1.018563 1.003986 1.022687 1.026845 1.061369 1.088824 1.126713 1.177129 1.200633 1.221539 1.189325 1.220358 1.268157 1.243186 1.311625 1.304849 1.326785 1.381962 1.424042 1.455223 1.470474 1.460271 1.489555 1.487790 1.542305 1.576975 1.578947 1.578947 1.549888 1.547988 1.547988 1.547988 1.547988 1.547988 1.547988 1.547988 1.547988 1.547988 1.547988 1.547988 1.547988 1.547988 1.547988 1.547988 1.547988 1.547988 1.547988 1.547988 1.547988 1.547988 1.547988 1.547988 1.547988 1.547988 1.547988 1.547988 1.547988 1.547988 1.547988 1.547988 1.547988 1.547988 1.547988 1.547988 1.547988 1.547988 1.547988 1.547988 1.547988 1.547988 1.547988 1.547988 1.547988 1.547988 1.547988 1.547988 1.547988 1.547988 1.547988 1.547988 1.547988 1.547988 1.547988 1.547988 1.547988 1.547988 1.547988 1.547988 1.547988 1.547988 1.547988 1.547988 1.547988 1.547988 1.547988 1.547988 1.547988 1.547988 1.547988 1.547988 1.547988 1.547988 1.547988 1.547988 1.547988 1.547988 1.547988 1.547988 1.547988 1.547988 1.547988 1.547988 1.547988 1.547988 1.547988 1.547988 1.547988 1.547988 1.547988 1.547988 1.547988 1.547988 1.547988 1.547988 1.547988 1.547988 1.547988 1.547988 1.547988 1.547988 1.547988 1.547988 1.547988 1.547988 1.547988 1.547988 1.547988 1.547988 1.547988 1.547988 1.547988 1.547988 1.547988 1.547988 1.547988 1.547988 1.547988 1.547988 1.547988 1.547988 1.547988 1.547988 1.547988 1.547988 1.547988 1.547988 1.547988 1.547988 1.547988 1.547988 1.547988 1.547988 1.547988 1.547988 1.547988 1.547988 1.547988 1.547988 1.547988 1.547988 1.547988 1.547988 1.547988 1.547988 200.000000 500.000000 
30500 0 1
31000 0 1
31500 0 1
32000 0 1
32500 0 1
33000 0 1
33500 0 1
34000 0 1
34500 0 1
35000 0 1
35500 0 1
36000 0 1
36500 0 1
37000 0 1
37500 0 1
38000 0 1
38500 0 1
39000 0 1
39500 0 1
40000 0 1
40500 0 1
41000 0 1
41500 0 1
42000 0 1
42500 0 1
43000 0 1
43500 0 1
44000 0 1
44500 0 1
45000 0 1
Exchange Info, print out 238 local_values before swap: 0.619195 0.619195 0.619195 0.619195 0.619195 0.619195 0.619195 0.619195 0.619195 0.619195 0.619195 0.619195 0.619195 0.619195 0.619195 0.619195 0.619195 0.619195 0.619195 0.619195 0.619195 0.619195 0.619195 0.619195 0.619195 0.619195 0.619195 0.619195 0.619195 0.619195 0.619195 0.619195 0.619195 0.619195 0.619195 0.619195 0.619195 0.619195 0.619195 0.619195 0.619195 0.619195 0.619195 0.657223 0.701395 0.710712 0.740730 0.759440 0.772448 0.803921 0.816395 0.872223 0.865052 0.869221 0.870420 0.887550 0.918539 0.926628 0.967078 0.966338 1.000009 1.013656 1.043822 1.041240 1.078594 1.104056 1.116749 1.130749 1.168415 1.171668 1.191569 1.207521 1.220359 1.231066 1.250574 1.259303 1.314356 1.340874 1.377440 1.391097 1.401908 1.441929 1.419240 1.446885 1.468764 1.514568 1.547988 1.547988 1.578947 1.578947 1.549888 1.547988 1.547988 1.547988 1.547988 1.547988 1.547988 1.547988 1.547988 1.547988 1.547988 1.547988 1.547988 1.547988 1.547988 1.547988 1.547988 1.547988 1.547988 1.547988 1.547988 1.547988 1.547988 1.547988 1.547988 1.547988 1.547988 1.547988 1.547988 1.547988 1.547988 1.547988 1.547988 1.547988 1.547988 1.547988 1.547988 1.547988 1.547988 1.547988 1.547988 1.547988 1.547988 1.547988 1.547988 1.547988 1.547988 1.547988 1.547988 1.547988 1.547988 1.547988 1.547988 1.547988 1.547988 1.547988 1.547988 1.547988 1.547988 1.547988 1.547988 1.547988 1.547988 1.547988 1.547988 1.547988 1.547988 1.547988 1.547988 1.547988 1.547988 1.547988 1.547988 1.547988 1.547988 1.547988 1.547988 1.547988 1.547988 1.547988 1.547988 1.547988 1.547988 1.547988 1.547988 1.547988 1.547988 1.547988 1.547988 1.547988 1.547988 1.547988 1.547988 1.547988 1.547988 1.547988 1.547988 1.547988 1.547988 1.547988 1.547988 1.547988 1.547988 1.547988 1.547988 1.547988 1.547988 1.547988 1.547988 1.547988 1.547988 1.547988 1.547988 1.547988 1.547988 1.547988 1.547988 1.547988 1.547988 1.547988 1.547988 1.547988 1.547988 1.547988 1.547988 1.547988 1.547988 1.547988 1.547988 1.547988 1.547988 1.547988 1.547988 1.547988 1.547988 1.547988 1.547988 1.547988 1.547988 1.547988 1.547988 1.547988 1.547988 1.547988 1.547988 1.547988 200.000000 500.000000 
Exchange Info, print out 238 local_values after swap: 0.650155 0.650155 0.650155 0.650155 0.650155 0.650155 0.650155 0.650155 0.650155 0.650155 0.650155 0.650155 0.650155 0.650155 0.650155 0.650155 0.650155 0.650155 0.650155 0.650155 0.650155 0.650155 0.650155 0.650155 0.650155 0.650155 0.650155 0.650155 0.650155 0.650155 0.650155 0.650155 0.650155 0.650155 0.650155 0.650155 0.650155 0.650155 0.650155 0.650155 0.650155 0.619195 0.619195 0.650155 0.650155 0.670524 0.726876 0.723745 0.754447 0.771030 0.794311 0.833090 0.816921 0.802896 0.825465 0.895731 0.902775 0.919874 0.951767 0.966334 0.989816 1.010408 1.020204 1.027677 1.050766 1.075833 1.102124 1.126708 1.132773 1.155579 1.172751 1.193817 1.223900 1.249330 1.254294 1.319844 1.300809 1.349464 1.352355 1.397246 1.412880 1.392624 1.456893 1.463648 1.482560 1.470465 1.563309 1.578947 1.578947 1.578947 1.578947 1.578947 1.578947 1.578947 1.578947 1.578947 1.578947 1.578947 1.578947 1.578947 1.578947 1.578947 1.578947 1.578947 1.578947 1.578947 1.578947 1.578947 1.578947 1.578947 1.578947 1.578947 1.578947 1.578947 1.578947 1.578947 1.578947 1.578947 1.578947 1.578947 1.578947 1.578947 1.578947 1.578947 1.578947 1.578947 1.578947 1.578947 1.578947 1.578947 1.578947 1.578947 1.578947 1.578947 1.578947 1.578947 1.578947 1.578947 1.578947 1.578947 1.578947 1.578947 1.578947 1.578947 1.578947 1.578947 1.578947 1.578947 1.578947 1.578947 1.578947 1.578947 1.578947 1.578947 1.578947 1.578947 1.578947 1.578947 1.578947 1.578947 1.578947 1.578947 1.578947 1.578947 1.578947 1.578947 1.578947 1.578947 1.578947 1.578947 1.578947 1.578947 1.578947 1.578947 1.578947 1.578947 1.578947 1.578947 1.578947 1.578947 1.578947 1.578947 1.578947 1.578947 1.578947 1.578947 1.578947 1.578947 1.578947 1.578947 1.578947 1.578947 1.578947 1.578947 1.578947 1.578947 1.578947 1.578947 1.578947 1.578947 1.578947 1.578947 1.578947 1.578947 1.578947 1.578947 1.578947 1.578947 1.578947 1.578947 1.578947 1.578947 1.578947 1.578947 1.578947 1.578947 1.578947 1.578947 1.578947 1.578947 1.578947 1.578947 1.578947 1.578947 1.578947 1.578947 1.578947 1.578947 1.578947 1.578947 1.578947 1.578947 1.578947 1.578947 1.578947 1.578947 210.000000 510.000000 
45500 1 0
46000 1 0
46500 1 0
47000 1 0
47500 1 0
48000 1 0
Exchange Info, print out 238 local_values before swap: 0.650155 0.650155 0.650155 0.650155 0.650155 0.650155 0.650155 0.650155 0.650155 0.650155 0.650155 0.650155 0.650155 0.650155 0.650155 0.650155 0.650155 0.650155 0.650155 0.650155 0.650155 0.650155 0.650155 0.650155 0.650155 0.650155 0.650155 0.650155 0.650155 0.650155 0.650155 0.650155 0.650155 0.650155 0.650155 0.650155 0.650155 0.650155 0.650155 0.650155 0.650155 0.619195 0.619195 0.650155 0.650155 0.670524 0.726876 0.723745 0.754447 0.771030 0.763571 0.785907 0.805457 0.825465 0.855091 0.883819 0.898280 0.930722 0.939726 0.927986 0.939726 1.003184 1.030192 1.031033 1.063151 1.088820 1.099246 1.116744 1.136853 1.172750 1.190440 1.196078 1.221533 1.251807 1.256790 1.314349 1.284925 1.333784 1.388031 1.420829 1.378936 1.391090 1.436998 1.484293 1.507336 1.546093 1.547988 1.547988 1.578947 1.578947 1.578947 1.578947 1.578947 1.578947 1.578947 1.578947 1.578947 1.578947 1.578947 1.578947 1.578947 1.578947 1.578947 1.578947 1.578947 1.578947 1.578947 1.578947 1.578947 1.578947 1.578947 1.578947 1.578947 1.578947 1.578947 1.578947 1.578947 1.578947 1.578947 1.578947 1.578947 1.578947 1.578947 1.578947 1.578947 1.578947 1.578947 1.578947 1.578947 1.578947 1.578947 1.578947 1.578947 1.578947 1.578947 1.578947 1.578947 1.578947 1.578947 1.578947 1.578947 1.578947 1.578947 1.578947 1.578947 1.578947 1.578947 1.578947 1.578947 1.578947 1.578947 1.578947 1.578947 1.578947 1.578947 1.578947 1.578947 1.578947 1.578947 1.578947 1.578947 1.578947 1.578947 1.578947 1.578947 1.578947 1.578947 1.578947 1.578947 1.578947 1.578947 1.578947 1.578947 1.578947 1.578947 1.578947 1.578947 1.578947 1.578947 1.578947 1.578947 1.578947 1.578947 1.578947 1.578947 1.578947 1.578947 1.578947 1.578947 1.578947 1.578947 1.578947 1.578947 1.578947 1.578947 1.578947 1.578947 1.578947 1.578947 1.578947 1.578947 1.578947 1.578947 1.578947 1.578947 1.578947 1.578947 1.578947 1.578947 1.578947 1.578947 1.578947 1.578947 1.578947 1.578947 1.578947 1.578947 1.578947 1.578947 1.578947 1.578947 1.578947 1.578947 1.578947 1.578947 1.578947 1.578947 1.578947 1.578947 1.578947 1.578947 1.578947 1.578947 1.578947 1.578947 1.578947 210.000000 510.000000 
Exchange Info, print out 238 local_values after swap: 0.619195 0.619195 0.619195 0.619195 0.619195 0.619195 0.619195 0.619195 0.619195 0.619195 0.619195 0.619195 0.619195 0.619195 0.619195 0.619195 0.619195 0.619195 0.619195 0.619195 0.619195 0.619195 0.619195 0.619195 0.619195 0.619195 0.619195 0.619195 0.619195 0.619195 0.619195 0.619195 0.619195 0.619195 0.619195 0.619195 0.619195 0.619195 0.619195 0.619195 0.619195 0.619195 0.619195 0.657223 0.701395 0.710712 0.740730 0.759440 0.772448 0.803921 0.816395 0.872223 0.864460 0.859752 0.847064 0.869221 0.922565 0.920548 0.961921 0.915210 0.935552 1.000802 1.042099 1.056927 1.105990 1.092592 1.109879 1.135835 1.167335 1.191569 1.172756 1.225094 1.288867 1.237096 1.259304 1.284932 1.288866 1.350915 1.349471 1.397254 1.424042 1.427261 1.419240 1.446885 1.473907 1.484302 1.538547 1.578947 1.578947 1.578947 1.549888 1.547988 1.547988 1.547988 1.547988 1.547988 1.547988 1.547988 1.547988 1.547988 1.547988 1.547988 1.547988 1.547988 1.547988 1.547988 1.547988 1.547988 1.547988 1.547988 1.547988 1.547988 1.547988 1.547988 1.547988 1.547988 1.547988 1.547988 1.547988 1.547988 1.547988 1.547988 1.547988 1.547988 1.547988 1.547988 1.547988 1.547988 1.547988 1.547988 1.547988 1.547988 1.547988 1.547988 1.547988 1.547988 1.547988 1.547988 1.547988 1.547988 1.547988 1.547988 1.547988 1.547988 1.547988 1.547988 1.547988 1.547988 1.547988 1.547988 1.547988 1.547988 1.547988 1.547988 1.547988 1.547988 1.547988 1.547988 1.547988 1.547988 1.547988 1.547988 1.547988 1.547988 1.547988 1.547988 1.547988 1.547988 1.547988 1.547988 1.547988 1.547988 1.547988 1.547988 1.547988 1.547988 1.547988 1.547988 1.547988 1.547988 1.547988 1.547988 1.547988 1.547988 1.547988 1.547988 1.547988 1.547988 1.547988 1.547988 1.547988 1.547988 1.547988 1.547988 1.547988 1.547988 1.547988 1.547988 1.547988 1.547988 1.547988 1.547988 1.547988 1.547988 1.547988 1.547988 1.547988 1.547988 1.547988 1.547988 1.547988 1.547988 1.547988 1.547988 1.547988 1.547988 1.547988 1.547988 1.547988 1.547988 1.547988 1.547988 1.547988 1.547988 1.547988 1.547988 1.547988 1.547988 1.547988 1.547988 1.547988 1.547988 1.547988 1.547988 1.547988 1.547988 200.000000 500.000000 
48500 0 1
49000 0 1
49500 0 1
50000 0 1
50500 0 1
51000 0 1
51500 0 1
52000 0 1
52500 0 1
53000 0 1
53500 0 1
54000 0 1
54500 0 1
55000 0 1
55500 0 1
56000 0 1
56500 0 1
57000 0 1
57500 0 1
58000 0 1
58500 0 1
59000 0 1
59500 0 1
60000 0 1
60500 0 1
61000 0 1
61500 0 1
62000 0 1
62500 0 1
63000 0 1
63500 0 1
64000 0 1
64500 0 1
65000 0 1
65500 0 1
66000 0 1
66500 0 1
67000 0 1
67500 0 1
68000 0 1
68500 0 1
69000 0 1
69500 0 1
70000 0 1
70500 0 1
71000 0 1
71500 0 1
72000 0 1
Exchange Info, print out 238 local_values before swap: 0.619195 0.619195 0.619195 0.619195 0.619195 0.619195 0.619195 0.619195 0.619195 0.619195 0.619195 0.619195 0.619195 0.619195 0.619195 0.619195 0.619195 0.619195 0.619195 0.619195 0.619195 0.619195 0.619195 0.619195 0.619195 0.619195 0.619195 0.619195 0.619195 0.619195 0.619195 0.619195 0.619195 0.619195 0.619195 0.619195 0.619195 0.619195 0.619195 0.619195 0.619195 0.619195 0.619195 0.644477 0.680969 0.708717 0.730869 0.748191 0.772921 0.799848 0.809591 0.833093 0.834193 0.838626 0.839183 0.863869 0.880740 0.877070 0.890052 0.943239 0.989044 1.003187 1.034416 1.040382 1.074921 1.093538 1.123706 1.118728 1.178227 1.182642 1.189324 1.237096 1.258049 1.265614 1.278428 1.299477 1.317097 1.350915 1.326785 1.381962 1.408161 1.414471 1.432117 1.479086 1.546093 1.547988 1.547988 1.547988 1.547988 1.578947 1.549888 1.547988 1.547988 1.547988 1.547988 1.547988 1.547988 1.547988 1.547988 1.547988 1.547988 1.547988 1.547988 1.547988 1.547988 1.547988 1.547988 1.547988 1.547988 1.547988 1.547988 1.547988 1.547988 1.547988 1.547988 1.547988 1.547988 1.547988 1.547988 1.547988 1.547988 1.547988 1.547988 1.547988 1.547988 1.547988 1.547988 1.547988 1.547988 1.547988 1.547988 1.547988 1.547988 1.547988 1.547988 1.547988 1.547988 1.547988 1.547988 1.547988 1.547988 1.547988 1.547988 1.547988 1.547988 1.547988 1.547988 1.547988 1.547988 1.547988 1.547988 1.547988 1.547988 1.547988 1.547988 1.547988 1.547988 1.547988 1.547988 1.547988 1.547988 1.547988 1.547988 1.547988 1.547988 1.547988 1.547988 1.547988 1.547988 1.547988 1.547988 1.547988 1.547988 1.547988 1.547988 1.547988 1.547988 1.547988 1.547988 1.547988 1.547988 1.547988 1.547988 1.547988 1.547988 1.547988 1.547988 1.547988 1.547988 1.547988 1.547988 1.547988 1.547988 1.547988 1.547988 1.547988 1.547988 1.547988 1.547988 1.547988 1.547988 1.547988 1.547988 1.547988 1.547988 1.547988 1.547988 1.547988 1.547988 1.547988 1.547988 1.547988 1.547988 1.547988 1.547988 1.547988 1.547988 1.547988 1.547988 1.547988 1.547988 1.547988 1.547988 1.547988 1.547988 1.547988 1.547988 1.547988 1.547988 1.547988 1.547988 1.547988 1.547988 1.547988 1.547988 1.547988 200.000000 500.000000 
Exchange Info, print out 238 local_values after swap: 0.650155 0.650155 0.650155 0.650155 0.650155 0.650155 0.650155 0.650155 0.650155 0.650155 0.650155 0.650155 0.650155 0.650155 0.650155 0.650155 0.650155 0.650155 0.650155 0.650155 0.650155 0.650155 0.650155 0.650155 0.650155 0.650155 0.650155 0.650155 0.650155 0.650155 0.650155 0.650155 0.650155 0.650155 0.650155 0.650155 0.650155 0.650155 0.650155 0.650155 0.650155 0.619195 0.650155 0.650155 0.650155 0.674463 0.703392 0.763570 0.743781 0.796817 0.795311 0.839180 0.834741 0.892564 0.915207 0.925944 0.919874 0.930036 0.958995 0.987493 1.007184 1.013653 1.062257 1.049892 1.081360 1.127715 1.098290 1.167330 1.174933 1.192688 1.189319 1.237091 1.283619 1.283619 1.326778 1.333785 1.318466 1.361100 1.377433 1.378936 1.422429 1.412880 1.436998 1.475621 1.470475 1.501947 1.555605 1.578947 1.578947 1.578947 1.578947 1.578947 1.578947 1.578947 1.578947 1.578947 1.578947 1.578947 1.578947 1.578947 1.578947 1.578947 1.578947 1.578947 1.578947 1.578947 1.578947 1.578947 1.578947 1.578947 1.578947 1.578947 1.578947 1.578947 1.578947 1.578947 1.578947 1.578947 1.578947 1.578947 1.578947 1.578947 1.578947 1.578947 1.578947 1.578947 1.578947 1.578947 1.578947 1.578947 1.578947 1.578947 1.578947 1.578947 1.578947 1.578947 1.578947 1.578947 1.578947 1.578947 1.578947 1.578947 1.578947 1.578947 1.578947 1.578947 1.578947 1.578947 1.578947 1.578947 1.578947 1.578947 1.578947 1.578947 1.578947 1.578947 1.578947 1.578947 1.578947 1.578947 1.578947 1.578947 1.578947 1.578947 1.578947 1.578947 1.578947 1.578947 1.578947 1.578947 1.578947 1.578947 1.578947 1.578947 1.578947 1.578947 1.578947 1.578947 1.578947 1.578947 1.578947 1.578947 1.578947 1.578947 1.578947 1.578947 1.578947 1.578947 1.578947 1.578947 1.578947 1.578947 1.578947 1.578947 1.578947 1.578947 1.578947 1.578947 1.578947 1.578947 1.578947 1.578947 1.578947 1.578947 1.578947 1.578947 1.578947 1.578947 1.578947 1.578947 1.578947 1.578947 1.578947 1.578947 1.578947 1.578947 1.578947 1.578947 1.578947 1.578947 1.578947 1.578947 1.578947 1.578947 1.578947 1.578947 1.578947 1.578947 1.578947 1.578947 1.578947 1.578947 1.578947 1.578947 1.578947 1.578947 210.000000 510.000000 
72500 1 0
73000 1 0
73500 1 0
74000 1 0
74500 1 0
75000 1 0
75500 1 0
76000 1 0
76500 1 0
77000 1 0
77500 1 0
78000 1 0
78500 1 0
79000 1 0
79500 1 0
80000 1 0
80500 1 0
81000 1 0
81500 1 0
82000 1 0
82500 1 0
83000 1 0
83500 1 0
84000 1 0
84500 1 0
85000 1 0
85500 1 0
86000 1 0
86500 1 0
87000 1 0
87500 1 0
88000 1 0
88500 1 0
89000 1 0
89500 1 0
90000 1 0
90500 1 0
91000 1 0
Exchange Info, print out 238 local_values before swap: 0.650155 0.650155 0.650155 0.650155 0.650155 0.650155 0.650155 0.650155 0.650155 0.650155 0.650155 0.650155 0.650155 0.650155 0.650155 0.650155 0.650155 0.650155 0.650155 0.650155 0.650155 0.650155 0.650155 0.650155 0.650155 0.650155 0.650155 0.650155 0.650155 0.650155 0.650155 0.650155 0.650155 0.650155 0.650155 0.650155 0.650155 0.650155 0.650155 0.650155 0.650155 0.619195 0.619195 0.637965 0.681746 0.676995 0.707332 0.742469 0.754447 0.792814 0.800352 0.843102 0.787376 0.798328 0.847061 0.886300 0.901486 0.934164 0.953924 1.007184 0.998425 1.016100 1.039520 1.067646 1.078589 1.077669 1.088820 1.110850 1.131758 1.149268 1.165176 1.193817 1.239518 1.237090 1.263076 1.315719 1.345152 1.361100 1.350908 1.388031 1.395702 1.406585 1.441921 1.445221 1.445230 1.514568 1.547988 1.547988 1.547988 1.578947 1.578947 1.578947 1.578947 1.578947 1.578947 1.578947 1.578947 1.578947 1.578947 1.578947 1.578947 1.578947 1.578947 1.578947 1.578947 1.578947 1.578947 1.578947 1.578947 1.578947 1.578947 1.578947 1.578947 1.578947 1.578947 1.578947 1.578947 1.578947 1.578947 1.578947 1.578947 1.578947 1.578947 1.578947 1.578947 1.578947 1.578947 1.578947 1.578947 1.578947 1.578947 1.578947 1.578947 1.578947 1.578947 1.578947 1.578947 1.578947 1.578947 1.578947 1.578947 1.578947 1.578947 1.578947 1.578947 1.578947 1.578947 1.578947 1.578947 1.578947 1.578947 1.578947 1.578947 1.578947 1.578947 1.578947 1.578947 1.578947 1.578947 1.578947 1.578947 1.578947 1.578947 1.578947 1.578947 1.578947 1.578947 1.578947 1.578947 1.578947 1.578947 1.578947 1.578947 1.578947 1.578947 1.578947 1.578947 1.578947 1.578947 1.578947 1.578947 1.578947 1.578947 1.578947 1.578947 1.578947 1.578947 1.578947 1.578947 1.578947 1.578947 1.578947 1.578947 1.578947 1.578947 1.578947 1.578947 1.578947 1.578947 1.578947 1.578947 1.578947 1.578947 1.578947 1.578947 1.578947 1.578947 1.578947 1.578947 1.578947 1.578947 1.578947 1.578947 1.578947 1.578947 1.578947 1.578947 1.578947 1.578947 1.578947 1.578947 1.578947 1.578947 1.578947 1.578947 1.578947 1.578947 1.578947 1.578947 1.578947 1.578947 1.578947 1.578947 1.578947 1.578947 1.578947 210.000000 510.000000 
Exchange Info, print out 238 local_values after swap: 0.619195 0.619195 0.619195 0.619195 0.619195 0.619195 0.619195 0.619195 0.619195 0.619195 0.619195 0.619195 0.619195 0.619195 0.619195 0.619195 0.619195 0.619195 0.619195 0.619195 0.619195 0.619195 0.619195 0.619195 0.619195 0.619195 0.619195 0.619195 0.619195 0.619195 0.619195 0.619195 0.619195 0.619195 0.619195 0.619195 0.619195 0.619195 0.619195 0.619195 0.619195 0.619195 0.619195 0.650155 0.650155 0.679179 0.725411 0.732140 0.767752 0.749523 0.728760 0.786399 0.841980 0.855674 0.885682 0.877070 0.904071 0.918539 0.969305 0.987497 0.987497 1.003985 1.016104 1.046417 1.069459 1.072183 1.090705 1.131763 1.125709 1.138909 1.199492 1.233471 1.220359 1.258049 1.295478 1.318473 1.343727 1.361108 1.391097 1.375939 1.455223 1.438643 1.422438 1.458575 1.501947 1.493068 1.547977 1.578947 1.578947 1.578947 1.549888 1.547988 1.547988 1.547988 1.547988 1.547988 1.547988 1.547988 1.547988 1.547988 1.547988 1.547988 1.547988 1.547988 1.547988 1.547988 1.547988 1.547988 1.547988 1.547988 1.547988 1.547988 1.547988 1.547988 1.547988 1.547988 1.547988 1.547988 1.547988 1.547988 1.547988 1.547988 1.547988 1.547988 1.547988 1.547988 1.547988 1.547988 1.547988 1.547988 1.547988 1.547988 1.547988 1.547988 1.547988 1.547988 1.547988 1.547988 1.547988 1.547988 1.547988 1.547988 1.547988 1.547988 1.547988 1.547988 1.547988 1.547988 1.547988 1.547988 1.547988 1.547988 1.547988 1.547988 1.547988 1.547988 1.547988 1.547988 1.547988 1.547988 1.547988 1.547988 1.547988 1.547988 1.547988 1.547988 1.547988 1.547988 1.547988 1.547988 1.547988 1.547988 1.547988 1.547988 1.547988 1.547988 1.547988 1.547988 1.547988 1.547988 1.547988 1.547988 1.547988 1.547988 1.547988 1.547988 1.547988 1.547988 1.547988 1.547988 1.547988 1.547988 1.547988 1.547988 1.547988 1.547988 1.547988 1.547988 1.547988 1.547988 1.547988 1.547988 1.547988 1.547988 1.547988 1.547988 1.547988 1.547988 1.547988 1.547988 1.547988 1.547988 1.547988 1.547988 1.547988 1.547988 1.547988 1.547988 1.547988 1.547988 1.547988 1.547988 1.547988 1.547988 1.547988 1.547988 1.547988 1.547988 1.547988 1.547988 1.547988 1.547988 1.547988 1.547988 1.547988 1.547988 200.000000 500.000000 
91500 0 1
92000 0 1
92500 0 1
93000 0 1
93500 0 1
94000 0 1
94500 0 1
95000 0 1
95500 0 1
96000 0 1
96500 0 1
97000 0 1
97500 0 1
98000 0 1
Exchange Info, print out 238 local_values before swap: 0.619195 0.619195 0.619195 0.619195 0.619195 0.619195 0.619195 0.619195 0.619195 0.619195 0.619195 0.619195 0.619195 0.619195 0.619195 0.619195 0.619195 0.619195 0.619195 0.619195 0.619195 0.619195 0.619195 0.619195 0.619195 0.619195 0.619195 0.619195 0.619195 0.619195 0.619195 0.619195 0.619195 0.619195 0.619195 0.619195 0.619195 0.619195 0.619195 0.619195 0.619195 0.619195 0.619195 0.642509 0.683222 0.682483 0.720856 0.724578 0.753099 0.761271 0.771033 0.799848 0.820107 0.839183 0.881971 0.896370 0.907971 0.921220 0.947486 0.967819 0.988270 1.007188 1.044686 1.036965 1.061369 1.096387 1.105990 1.127720 1.130749 1.170582 1.200633 1.212158 1.249336 1.274556 1.273272 1.258049 1.312989 1.321232 1.395710 1.377440 1.428876 1.438643 1.403466 1.472179 1.547988 1.547988 1.547988 1.547988 1.547988 1.578947 1.549888 1.547988 1.547988 1.547988 1.547988 1.547988 1.547988 1.547988 1.547988 1.547988 1.547988 1.547988 1.547988 1.547988 1.547988 1.547988 1.547988 1.547988 1.547988 1.547988 1.547988 1.547988 1.547988 1.547988 1.547988 1.547988 1.547988 1.547988 1.547988 1.547988 1.547988 1.547988 1.547988 1.547988 1.547988 1.547988 1.547988 1.547988 1.547988 1.547988 1.547988 1.547988 1.547988 1.547988 1.547988 1.547988 1.547988 1.547988 1.547988 1.547988 1.547988 1.547988 1.547988 1.547988 1.547988 1.547988 1.547988 1.547988 1.547988 1.547988 1.547988 1.547988 1.547988 1.547988 1.547988 1.547988 1.547988 1.547988 1.547988 1.547988 1.547988 1.547988 1.547988 1.547988 1.547988 1.547988 1.547988 1.547988 1.547988 1.547988 1.547988 1.547988 1.547988 1.547988 1.547988 1.547988 1.547988 1.547988 1.547988 1.547988 1.547988 1.547988 1.547988 1.547988 1.547988 1.547988 1.547988 1.547988 1.547988 1.547988 1.547988 1.547988 1.547988 1.547988 1.547988 1.547988 1.547988 1.547988 1.547988 1.547988 1.547988 1.547988 1.547988 1.547988 1.547988 1.547988 1.547988 1.547988 1.547988 1.547988 1.547988 1.547988 1.547988 1.547988 1.547988 1.547988 1.547988 1.547988 1.547988 1.547988 1.547988 1.547988 1.547988 1.547988 1.547988 1.547988 1.547988 1.547988 1.547988 1.547988 1.547988 1.547988 1.547988 1.547988 1.547988 1.547988 200.000000 500.000000 
Exchange Info, print out 238 local_values after swap: 0.650155 0.650155 0.650155 0.650155 0.650155 0.650155 0.650155 0.650155 0.650155 0.650155 0.650155 0.650155 0.650155 0.650155 0.650155 0.650155 0.650155 0.650155 0.650155 0.650155 0.650155 0.650155 0.650155 0.650155 0.650155 0.650155 0.650155 0.650155 0.650155 0.650155 0.650155 0.650155 0.650155 0.650155 0.650155 0.650155 0.650155 0.650155 0.650155 0.650155 0.650155 0.619195 0.650155 0.650155 0.657946 0.738352 0.708523 0.753096 0.749521 0.799339 0.786396 0.832541 0.819572 0.846492 0.851057 0.872220 0.889422 0.931408 0.946062 0.972286 0.995277 1.027677 1.043817 1.062257 1.077669 1.076750 1.103087 1.136852 1.138903 1.176027 1.181529 1.201770 1.240736 1.258042 1.232261 1.258043 1.296802 1.338024 1.388031 1.386507 1.397246 1.408154 1.435365 1.440276 1.465355 1.518199 1.578947 1.578947 1.578947 1.578947 1.578947 1.578947 1.578947 1.578947 1.578947 1.578947 1.578947 1.578947 1.578947 1.578947 1.578947 1.578947 1.578947 1.578947 1.578947 1.578947 1.578947 1.578947 1.578947 1.578947 1.578947 1.578947 1.578947 1.578947 1.578947 1.578947 1.578947 1.578947 1.578947 1.578947 1.578947 1.578947 1.578947 1.578947 1.578947 1.578947 1.578947 1.578947 1.578947 1.578947 1.578947 1.578947 1.578947 1.578947 1.578947 1.578947 1.578947 1.578947 1.578947 1.578947 1.578947 1.578947 1.578947 1.578947 1.578947 1.578947 1.578947 1.578947 1.578947 1.578947 1.578947 1.578947 1.578947 1.578947 1.578947 1.578947 1.578947 1.578947 1.578947 1.578947 1.578947 1.578947 1.578947 1.578947 1.578947 1.578947 1.578947 1.578947 1.578947 1.578947 1.578947 1.578947 1.578947 1.578947 1.578947 1.578947 1.578947 1.578947 1.578947 1.578947 1.578947 1.578947 1.578947 1.578947 1.578947 1.578947 1.578947 1.578947 1.578947 1.578947 1.578947 1.578947 1.578947 1.578947 1.578947 1.578947 1.578947 1.578947 1.578947 1.578947 1.578947 1.578947 1.578947 1.578947 1.578947 1.578947 1.578947 1.578947 1.578947 1.578947 1.578947 1.578947 1.578947 1.578947 1.578947 1.578947 1.578947 1.578947 1.578947 1.578947 1.578947 1.578947 1.578947 1.578947 1.578947 1.578947 1.578947 1.578947 1.578947 1.578947 1.578947 1.578947 1.578947 1.578947 1.578947 1.578947 210.000000 510.000000 
98500 1 0
99000 1 0
99500 1 0
100000 1 0
100500 1 0
101000 1 0
101500 1 0
102000 1 0
102500 1 0
103000 1 0
103500 1 0
104000 1 0
104500 1 0
105000 1 0
105500 1 0
106000 1 0
106500 1 0
107000 1 0
107500 1 0
108000 1 0
108500 1 0
109000 1 0
Exchange Info, print out 238 local_values before swap: 0.650155 0.650155 0.650155 0.650155 0.650155 0.650155 0.650155 0.650155 0.650155 0.650155 0.650155 0.650155 0.650155 0.650155 0.650155 0.650155 0.650155 0.650155 0.650155 0.650155 0.650155 0.650155 0.650155 0.650155 0.650155 0.650155 0.650155 0.650155 0.650155 0.650155 0.650155 0.650155 0.650155 0.650155 0.650155 0.650155 0.650155 0.650155 0.650155 0.650155 0.650155 0.619195 0.650155 0.650155 0.657946 0.738352 0.708523 0.753096 0.707921 0.730021 0.768216 0.815339 0.762648 0.796314 0.822776 0.886923 0.917202 0.910587 0.956091 0.994493 0.999215 1.028514 0.989040 0.982117 1.053396 1.082287 1.100204 1.120709 1.130744 1.147180 1.187083 1.240737 1.231060 1.283619 1.261814 1.330974 1.329572 1.340866 1.371449 1.375931 1.342291 1.353805 1.400346 1.422438 1.520037 1.547988 1.547988 1.547988 1.547988 1.578947 1.578947 1.578947 1.578947 1.578947 1.578947 1.578947 1.578947 1.578947 1.578947 1.578947 1.578947 1.578947 1.578947 1.578947 1.578947 1.578947 1.578947 1.578947 1.578947 1.578947 1.578947 1.578947 1.578947 1.578947 1.578947 1.578947 1.578947 1.578947 1.578947 1.578947 1.578947 1.578947 1.578947 1.578947 1.578947 1.578947 1.578947 1.578947 1.578947 1.578947 1.578947 1.578947 1.578947 1.578947 1.578947 1.578947 1.578947 1.578947 1.578947 1.578947 1.578947 1.578947 1.578947 1.578947 1.578947 1.578947 1.578947 1.578947 1.578947 1.578947 1.578947 1.578947 1.578947 1.578947 1.578947 1.578947 1.578947 1.578947 1.578947 1.578947 1.578947 1.578947 1.578947 1.578947 1.578947 1.578947 1.578947 1.578947 1.578947 1.578947 1.578947 1.578947 1.578947 1.578947 1.578947 1.578947 1.578947 1.578947 1.578947 1.578947 1.578947 1.578947 1.578947 1.578947 1.578947 1.578947 1.578947 1.578947 1.578947 1.578947 1.578947 1.578947 1.578947 1.578947 1.578947 1.578947 1.578947 1.578947 1.578947 1.578947 1.578947 1.578947 1.578947 1.578947 1.578947 1.578947 1.578947 1.578947 1.578947 1.578947 1.578947 1.578947 1.578947 1.578947 1.578947 1.578947 1.578947 1.578947 1.578947 1.578947 1.578947 1.578947 1.578947 1.578947 1.578947 1.578947 1.578947 1.578947 1.578947 1.578947 1.578947 1.578947 1.578947 1.578947 1.578947 1.578947 210.000000 510.000000 
Exchange Info, print out 238 local_values after swap: 0.619195 0.619195 0.619195 0.619195 0.619195 0.619195 0.619195 0.619195 0.619195 0.619195 0.619195 0.619195 0.619195 0.619195 0.619195 0.619195 0.619195 0.619195 0.619195 0.619195 0.619195 0.619195 0.619195 0.619195 0.619195 0.619195 0.619195 0.619195 0.619195 0.619195 0.619195 0.619195 0.619195 0.619195 0.619195 0.619195 0.619195 0.619195 0.619195 0.619195 0.619195 0.619195 0.619195 0.650155 0.650155 0.679545 0.714735 0.728760 0.764035 0.761731 0.783957 0.800863 0.827090 0.799848 0.798331 0.856254 0.909934 0.924592 0.959728 0.975294 0.976803 1.008797 1.035264 1.062262 1.103091 1.120713 1.086015 1.071273 1.094486 1.165181 1.209835 1.188205 1.248102 1.241963 1.296809 1.279723 1.333792 1.375939 1.392631 1.455222 1.435373 1.437006 1.440284 1.463647 1.489545 1.456893 1.500163 1.578947 1.578947 1.578947 1.549888 1.547988 1.547988 1.547988 1.547988 1.547988 1.547988 1.547988 1.547988 1.547988 1.547988 1.547988 1.547988 1.547988 1.547988 1.547988 1.547988 1.547988 1.547988 1.547988 1.547988 1.547988 1.547988 1.547988 1.547988 1.547988 1.547988 1.547988 1.547988 1.547988 1.547988 1.547988 1.547988 1.547988 1.547988 1.547988 1.547988 1.547988 1.547988 1.547988 1.547988 1.547988 1.547988 1.547988 1.547988 1.547988 1.547988 1.547988 1.547988 1.547988 1.547988 1.547988 1.547988 1.547988 1.547988 1.547988 1.547988 1.547988 1.547988 1.547988 1.547988 1.547988 1.547988 1.547988 1.547988 1.547988 1.547988 1.547988 1.547988 1.547988 1.547988 1.547988 1.547988 1.547988 1.547988 1.547988 1.547988 1.547988 1.547988 1.547988 1.547988 1.547988 1.547988 1.547988 1.547988 1.547988 1.547988 1.547988 1.547988 1.547988 1.547988 1.547988 1.547988 1.547988 1.547988 1.547988 1.547988 1.547988 1.547988 1.547988 1.547988 1.547988 1.547988 1.547988 1.547988 1.547988 1.547988 1.547988 1.547988 1.547988 1.547988 1.547988 1.547988 1.547988 1.547988 1.547988 1.547988 1.547988 1.547988 1.547988 1.547988 1.547988 1.547988 1.547988 1.547988 1.547988 1.547988 1.547988 1.547988 1.547988 1.547988 1.547988 1.547988 1.547988 1.547988 1.547988 1.547988 1.547988 1.547988 1.547988 1.547988 1.547988 1.547988 1.547988 1.547988 1.547988 200.000000 500.000000 
109500 0 1
110000 0 1
110500 0 1
111000 0 1
111500 0 1
112000 0 1
112500 0 1
113000 0 1
113500 0 1
114000 0 1
114500 0 1
115000 0 1
Exchange Info, print out 238 local_values before swap: 0.619195 0.619195 0.619195 0.619195 0.619195 0.619195 0.619195 0.619195 0.619195 0.619195 0.619195 0.619195 0.619195 0.619195 0.619195 0.619195 0.619195 0.619195 0.619195 0.619195 0.619195 0.619195 0.619195 0.619195 0.619195 0.619195 0.619195 0.619195 0.619195 0.619195 0.619195 0.619195 0.619195 0.619195 0.619195 0.619195 0.619195 0.619195 0.619195 0.619195 0.619195 0.619195 0.619195 0.626258 0.680644 0.678814 0.718804 0.724994 0.760355 0.767285 0.791823 0.793316 0.819575 0.814815 0.839183 0.857417 0.893832 0.915211 0.955371 0.978317 0.985955 1.016103 1.034416 1.080440 1.096387 1.101167 1.105990 1.109878 1.127720 1.160897 1.212158 1.192694 1.235886 1.243186 1.282323 1.294150 1.322616 1.326785 1.352362 1.424042 1.455223 1.435373 1.433743 1.453548 1.458585 1.527391 1.547988 1.547988 1.547988 1.578947 1.549888 1.547988 1.547988 1.547988 1.547988 1.547988 1.547988 1.547988 1.547988 1.547988 1.547988 1.547988 1.547988 1.547988 1.547988 1.547988 1.547988 1.547988 1.547988 1.547988 1.547988 1.547988 1.547988 1.547988 1.547988 1.547988 1.547988 1.547988 1.547988 1.547988 1.547988 1.547988 1.547988 1.547988 1.547988 1.547988 1.547988 1.547988 1.547988 1.547988 1.547988 1.547988 1.547988 1.547988 1.547988 1.547988 1.547988 1.547988 1.547988 1.547988 1.547988 1.547988 1.547988 1.547988 1.547988 1.547988 1.547988 1.547988 1.547988 1.547988 1.547988 1.547988 1.547988 1.547988 1.547988 1.547988 1.547988 1.547988 1.547988 1.547988 1.547988 1.547988 1.547988 1.547988 1.547988 1.547988 1.547988 1.547988 1.547988 1.547988 1.547988 1.547988 1.547988 1.547988 1.547988 1.547988 1.547988 1.547988 1.547988 1.547988 1.547988 1.547988 1.547988 1.547988 1.547988 1.547988 1.547988 1.547988 1.547988 1.547988 1.547988 1.547988 1.547988 1.547988 1.547988 1.547988 1.547988 1.547988 1.547988 1.547988 1.547988 1.547988 1.547988 1.547988 1.547988 1.547988 1.547988 1.547988 1.547988 1.547988 1.547988 1.547988 1.547988 1.547988 1.547988 1.547988 1.547988 1.547988 1.547988 1.547988 1.547988 1.547988 1.547988 1.547988 1.547988 1.547988 1.547988 1.547988 1.547988 1.547988 1.547988 1.547988 1.547988 1.547988 1.547988 1.547988 200.000000 500.000000 
Exchange Info, print out 238 local_values after swap: 0.650155 0.650155 0.650155 0.650155 0.650155 0.650155 0.650155 0.650155 0.650155 0.650155 0.650155 0.650155 0.650155 0.650155 0.650155 0.650155 0.650155 0.650155 0.650155 0.650155 0.650155 0.650155 0.650155 0.650155 0.650155 0.650155 0.650155 0.650155 0.650155 0.650155 0.650155 0.650155 0.650155 0.650155 0.650155 0.650155 0.650155 0.650155 0.650155 0.650155 0.650155 0.619195 0.650155 0.650155 0.650155 0.662086 0.694495 0.735978 0.723331 0.771973 0.764033 0.791820 0.789345 0.826546 0.839738 0.862686 0.899560 0.923912 0.951767 0.979071 0.996848 1.012840 1.013652 1.034412 1.042955 1.084146 1.102124 1.134809 1.132773 1.184855 1.185968 1.215653 1.240736 1.283619 1.275838 1.307544 1.300809 1.321224 1.323996 1.328173 1.314348 1.361101 1.412880 1.408162 1.461953 1.507326 1.567189 1.578947 1.578947 1.578947 1.578947 1.578947 1.578947 1.578947 1.578947 1.578947 1.578947 1.578947 1.578947 1.578947 1.578947 1.578947 1.578947 1.578947 1.578947 1.578947 1.578947 1.578947 1.578947 1.578947 1.578947 1.578947 1.578947 1.578947 1.578947 1.578947 1.578947 1.578947 1.578947 1.578947 1.578947 1.578947 1.578947 1.578947 1.578947 1.578947 1.578947 1.578947 1.578947 1.578947 1.578947 1.578947 1.578947 1.578947 1.578947 1.578947 1.578947 1.578947 1.578947 1.578947 1.578947 1.578947 1.578947 1.578947 1.578947 1.578947 1.578947 1.578947 1.578947 1.578947 1.578947 1.578947 1.578947 1.578947 1.578947 1.578947 1.578947 1.578947 1.578947 1.578947 1.578947 1.578947 1.578947 1.578947 1.578947 1.578947 1.578947 1.578947 1.578947 1.578947 1.578947 1.578947 1.578947 1.578947 1.578947 1.578947 1.578947 1.578947 1.578947 1.578947 1.578947 1.578947 1.578947 1.578947 1.578947 1.578947 1.578947 1.578947 1.578947 1.578947 1.578947 1.578947 1.578947 1.578947 1.578947 1.578947 1.578947 1.578947 1.578947 1.578947 1.578947 1.578947 1.578947 1.578947 1.578947 1.578947 1.578947 1.578947 1.578947 1.578947 1.578947 1.578947 1.578947 1.578947 1.578947 1.578947 1.578947 1.578947 1.578947 1.578947 1.578947 1.578947 1.578947 1.578947 1.578947 1.578947 1.578947 1.578947 1.578947 1.578947 1.578947 1.578947 1.578947 1.578947 1.578947 1.578947 210.000000 510.000000 
115500 1 0
116000 1 0
116500 1 0
117000 1 0
117500 1 0
118000 1 0
118500 1 0
119000 1 0
119500 1 0
120000 1 0
Exchange Info, print out 238 local_values before swap: 0.650155 0.650155 0.650155 0.650155 0.650155 0.650155 0.650155 0.650155 0.650155 0.650155 0.650155 0.650155 0.650155 0.650155 0.650155 0.650155 0.650155 0.650155 0.650155 0.650155 0.650155 0.650155 0.650155 0.650155 0.650155 0.650155 0.650155 0.650155 0.650155 0.650155 0.650155 0.650155 0.650155 0.650155 0.650155 0.650155 0.650155 0.650155 0.650155 0.650155 0.644843 0.619195 0.621940 0.704526 0.648819 0.685447 0.695642 0.738993 0.729600 0.766816 0.759438 0.799845 0.799845 0.825465 0.848199 0.887546 0.898280 0.920544 0.946062 0.973036 0.984414 1.037812 1.012839 1.040377 1.066744 1.081360 1.108899 1.132773 1.152415 1.204061 1.170576 1.235880 1.239518 1.291496 1.264341 1.283619 1.310258 1.335195 1.343720 1.448537 1.428867 1.371449 1.412880 1.408162 1.461953 1.507326 1.567189 1.578947 1.578947 1.578947 1.578947 1.578947 1.578947 1.578947 1.578947 1.578947 1.578947 1.578947 1.578947 1.578947 1.578947 1.578947 1.578947 1.578947 1.578947 1.578947 1.578947 1.578947 1.578947 1.578947 1.578947 1.578947 1.578947 1.578947 1.578947 1.578947 1.578947 1.578947 1.578947 1.578947 1.578947 1.578947 1.578947 1.578947 1.578947 1.578947 1.578947 1.578947 1.578947 1.578947 1.578947 1.578947 1.578947 1.578947 1.578947 1.578947 1.578947 1.578947 1.578947 1.578947 1.578947 1.578947 1.578947 1.578947 1.578947 1.578947 1.578947 1.578947 1.578947 1.578947 1.578947 1.578947 1.578947 1.578947 1.578947 1.578947 1.578947 1.578947 1.578947 1.578947 1.578947 1.578947 1.578947 1.578947 1.578947 1.578947 1.578947 1.578947 1.578947 1.578947 1.578947 1.578947 1.578947 1.578947 1.578947 1.578947 1.578947 1.578947 1.578947 1.578947 1.578947 1.578947 1.578947 1.578947 1.578947 1.578947 1.578947 1.578947 1.578947 1.578947 1.578947 1.578947 1.578947 1.578947 1.578947 1.578947 1.578947 1.578947 1.578947 1.578947 1.578947 1.578947 1.578947 1.578947 1.578947 1.578947 1.578947 1.578947 1.578947 1.578947 1.578947 1.578947 1.578947 1.578947 1.578947 1.578947 1.578947 1.578947 1.578947 1.578947 1.578947 1.578947 1.578947 1.578947 1.578947 1.578947 1.578947 1.578947 1.578947 1.578947 1.578947 1.578947 1.578947 1.578947 1.578947 1.578947 210.000000 510.000000 
Exchange Info, print out 238 local_values after swap: 0.619195 0.619195 0.619195 0.619195 0.619195 0.619195 0.619195 0.619195 0.619195 0.619195 0.619195 0.619195 0.619195 0.619195 0.619195 0.619195 0.619195 0.619195 0.619195 0.619195 0.619195 0.619195 0.619195 0.619195 0.619195 0.619195 0.619195 0.619195 0.619195 0.619195 0.619195 0.619195 0.619195 0.619195 0.619195 0.619195 0.619195 0.619195 0.619195 0.619195 0.619195 0.619195 0.619195 0.626258 0.680644 0.678814 0.718804 0.724994 0.760355 0.767285 0.791823 0.793316 0.819575 0.814815 0.839183 0.857417 0.893832 0.894465 0.886926 0.910590 0.973039 1.005584 1.026011 1.036965 1.030196 1.079516 1.096387 1.114777 1.158765 1.174939 1.199492 1.206368 1.235886 1.265614 1.291503 1.303502 1.340873 1.352362 1.377440 1.408161 1.419240 1.458584 1.443578 1.427261 1.408153 1.441920 1.505529 1.571089 1.578947 1.578947 1.549888 1.547988 1.547988 1.547988 1.547988 1.547988 1.547988 1.547988 1.547988 1.547988 1.547988 1.547988 1.547988 1.547988 1.547988 1.547988 1.547988 1.547988 1.547988 1.547988 1.547988 1.547988 1.547988 1.547988 1.547988 1.547988 1.547988 1.547988 1.547988 1.547988 1.547988 1.547988 1.547988 1.547988 1.547988 1.547988 1.547988 1.547988 1.547988 1.547988 1.547988 1.547988 1.547988 1.547988 1.547988 1.547988 1.547988 1.547988 1.547988 1.547988 1.547988 1.547988 1.547988 1.547988 1.547988 1.547988 1.547988 1.547988 1.547988 1.547988 1.547988 1.547988 1.547988 1.547988 1.547988 1.547988 1.547988 1.547988 1.547988 1.547988 1.547988 1.547988 1.547988 1.547988 1.547988 1.547988 1.547988 1.547988 1.547988 1.547988 1.547988 1.547988 1.547988 1.547988 1.547988 1.547988 1.547988 1.547988 1.547988 1.547988 1.547988 1.547988 1.547988 1.547988 1.547988 1.547988 1.547988 1.547988 1.547988 1.547988 1.547988 1.547988 1.547988 1.547988 1.547988 1.547988 1.547988 1.547988 1.547988 1.547988 1.547988 1.547988 1.547988 1.547988 1.547988 1.547988 1.547988 1.547988 1.547988 1.547988 1.547988 1.547988 1.547988 1.547988 1.547988 1.547988 1.547988 1.547988 1.547988 1.547988 1.547988 1.547988 1.547988 1.547988 1.547988 1.547988 1.547988 1.547988 1.547988 1.547988 1.547988 1.547988 1.547988 1.547988 1.547988 1.547988 200.000000 500.000000 
120500 0 1
121000 0 1
121500 0 1
122000 0 1
122500 0 1
123000 0 1
123500 0 1
124000 0 1
124500 0 1
125000 0 1
125500 0 1
126000 0 1
126500 0 1
127000 0 1
127500 0 1
128000 0 1
128500 0 1
129000 0 1
129500 0 1
130000 0 1
130500 0 1
131000 0 1
131500 0 1
132000 0 1
132500 0 1
133000 0 1
133500 0 1
134000 0 1
134500 0 1
135000 0 1
135500 0 1
136000 0 1
136500 0 1
137000 0 1
137500 0 1
138000 0 1
138500 0 1
139000 0 1
139500 0 1
140000 0 1
140500 0 1
141000 0 1
141500 0 1
142000 0 1
142500 0 1
143000 0 1
143500 0 1
144000 0 1
144500 0 1
145000 0 1
Exchange Info, print out 238 local_values before swap: 0.619195 0.619195 0.619195 0.619195 0.619195 0.619195 0.619195 0.619195 0.619195 0.619195 0.619195 0.619195 0.619195 0.619195 0.619195 0.619195 0.619195 0.619195 0.619195 0.619195 0.619195 0.619195 0.619195 0.619195 0.619195 0.619195 0.619195 0.619195 0.619195 0.619195 0.619195 0.619195 0.619195 0.619195 0.619195 0.619195 0.619195 0.619195 0.619195 0.619195 0.619195 0.619195 0.619195 0.619195 0.645502 0.677721 0.723333 0.739428 0.790336 0.773394 0.810110 0.785909 0.818512 0.827091 0.863279 0.869221 0.910590 0.923240 0.951054 0.957545 0.988270 0.997639 1.035264 1.037817 1.061369 1.087886 1.117738 1.147185 1.174938 1.221539 1.245638 1.281021 1.241964 1.291503 1.303502 1.321232 1.348031 1.326785 1.369968 1.388039 1.386515 1.416057 1.408162 1.477356 1.500173 1.538557 1.547988 1.547988 1.578947 1.578947 1.549888 1.547988 1.547988 1.547988 1.547988 1.547988 1.547988 1.547988 1.547988 1.547988 1.547988 1.547988 1.547988 1.547988 1.547988 1.547988 1.547988 1.547988 1.547988 1.547988 1.547988 1.547988 1.547988 1.547988 1.547988 1.547988 1.547988 1.547988 1.547988 1.547988 1.547988 1.547988 1.547988 1.547988 1.547988 1.547988 1.547988 1.547988 1.547988 1.547988 1.547988 1.547988 1.547988 1.547988 1.547988 1.547988 1.547988 1.547988 1.547988 1.547988 1.547988 1.547988 1.547988 1.547988 1.547988 1.547988 1.547988 1.547988 1.547988 1.547988 1.547988 1.547988 1.547988 1.547988 1.547988 1.547988 1.547988 1.547988 1.547988 1.547988 1.547988 1.547988 1.547988 1.547988 1.547988 1.547988 1.547988 1.547988 1.547988 1.547988 1.547988 1.547988 1.547988 1.547988 1.547988 1.547988 1.547988 1.547988 1.547988 1.547988 1.547988 1.547988 1.547988 1.547988 1.547988 1.547988 1.547988 1.547988 1.547988 1.547988 1.547988 1.547988 1.547988 1.547988 1.547988 1.547988 1.547988 1.547988 1.547988 1.547988 1.547988 1.547988 1.547988 1.547988 1.547988 1.547988 1.547988 1.547988 1.547988 1.547988 1.547988 1.547988 1.547988 1.547988 1.547988 1.547988 1.547988 1.547988 1.547988 1.547988 1.547988 1.547988 1.547988 1.547988 1.547988 1.547988 1.547988 1.547988 1.547988 1.547988 1.547988 1.547988 1.547988 1.547988 1.547988 1.547988 200.000000 500.000000 
Exchange Info, print out 238 local_values after swap: 0.650155 0.650155 0.650155 0.650155 0.650155 0.650155 0.650155 0.650155 0.650155 0.650155 0.650155 0.650155 0.650155 0.650155 0.650155 0.650155 0.650155 0.650155 0.650155 0.650155 0.650155 0.650155 0.650155 0.650155 0.650155 0.650155 0.650155 0.650155 0.650155 0.650155 0.650155 0.650155 0.650155 0.650155 0.650155 0.650155 0.650155 0.650155 0.650155 0.650155 0.644843 0.619195 0.621940 0.650155 0.650155 0.668041 0.711317 0.712716 0.736407 0.766816 0.789346 0.808552 0.825465 0.832540 0.837510 0.843102 0.878898 0.906014 0.937632 0.973036 0.967074 1.002388 1.019380 1.047280 1.061364 1.106955 1.103087 1.137877 1.158760 1.180424 1.164102 1.207516 1.189318 1.217998 1.209830 1.290177 1.333785 1.342291 1.356714 1.398794 1.397246 1.433735 1.446877 1.445230 1.455214 1.467048 1.571089 1.578947 1.578947 1.578947 1.578947 1.578947 1.578947 1.578947 1.578947 1.578947 1.578947 1.578947 1.578947 1.578947 1.578947 1.578947 1.578947 1.578947 1.578947 1.578947 1.578947 1.578947 1.578947 1.578947 1.578947 1.578947 1.578947 1.578947 1.578947 1.578947 1.578947 1.578947 1.578947 1.578947 1.578947 1.578947 1.578947 1.578947 1.578947 1.578947 1.578947 1.578947 1.578947 1.578947 1.578947 1.578947 1.578947 1.578947 1.578947 1.578947 1.578947 1.578947 1.578947 1.578947 1.578947 1.578947 1.578947 1.578947 1.578947 1.578947 1.578947 1.578947 1.578947 1.578947 1.578947 1.578947 1.578947 1.578947 1.578947 1.578947 1.578947 1.578947 1.578947 1.578947 1.578947 1.578947 1.578947 1.578947 1.578947 1.578947 1.578947 1.578947 1.578947 1.578947 1.578947 1.578947 1.578947 1.578947 1.578947 1.578947 1.578947 1.578947 1.578947 1.578947 1.578947 1.578947 1.578947 1.578947 1.578947 1.578947 1.578947 1.578947 1.578947 1.578947 1.578947 1.578947 1.578947 1.578947 1.578947 1.578947 1.578947 1.578947 1.578947 1.578947 1.578947 1.578947 1.578947 1.578947 1.578947 1.578947 1.578947 1.578947 1.578947 1.578947 1.578947 1.578947 1.578947 1.578947 1.578947 1.578947 1.578947 1.578947 1.578947 1.578947 1.578947 1.578947 1.578947 1.578947 1.578947 1.578947 1.578947 1.578947 1.578947 1.578947 1.578947 1.578947 1.578947 1.578947 1.578947 1.578947 210.000000 510.000000 
145500 1 0
146000 1 0
146500 1 0
147000 1 0
147500 1 0
148000 1 0
148500 1 0
149000 1 0
149500 1 0
150000 1 0
Exchange Info, print out 238 local_values before swap: 0.650155 0.650155 0.650155 0.650155 0.650155 0.650155 0.650155 0.650155 0.650155 0.650155 0.650155 0.650155 0.650155 0.650155 0.650155 0.650155 0.650155 0.650155 0.650155 0.650155 0.650155 0.650155 0.650155 0.650155 0.650155 0.650155 0.650155 0.650155 0.650155 0.650155 0.650155 0.650155 0.650155 0.650155 0.650155 0.650155 0.650155 0.650155 0.650155 0.650155 0.644843 0.619195 0.619195 0.637321 0.669813 0.679911 0.699883 0.726660 0.741162 0.766816 0.786396 0.807518 0.829260 0.838622 0.850484 0.867426 0.879510 0.908621 0.941828 0.952485 0.985182 1.003981 1.036109 1.097335 1.068549 1.101163 1.114773 1.151364 1.131758 1.157697 1.146139 1.205211 1.178221 1.220352 1.275838 1.266878 1.323996 1.358172 1.336609 1.389558 1.398794 1.433735 1.450201 1.414471 1.460262 1.547988 1.547988 1.547988 1.578947 1.578947 1.578947 1.578947 1.578947 1.578947 1.578947 1.578947 1.578947 1.578947 1.578947 1.578947 1.578947 1.578947 1.578947 1.578947 1.578947 1.578947 1.578947 1.578947 1.578947 1.578947 1.578947 1.578947 1.578947 1.578947 1.578947 1.578947 1.578947 1.578947 1.578947 1.578947 1.578947 1.578947 1.578947 1.578947 1.578947 1.578947 1.578947 1.578947 1.578947 1.578947 1.578947 1.578947 1.578947 1.578947 1.578947 1.578947 1.578947 1.578947 1.578947 1.578947 1.578947 1.578947 1.578947 1.578947 1.578947 1.578947 1.578947 1.578947 1.578947 1.578947 1.578947 1.578947 1.578947 1.578947 1.578947 1.578947 1.578947 1.578947 1.578947 1.578947 1.578947 1.578947 1.578947 1.578947 1.578947 1.578947 1.578947 1.578947 1.578947 1.578947 1.578947 1.578947 1.578947 1.578947 1.578947 1.578947 1.578947 1.578947 1.578947 1.578947 1.578947 1.578947 1.578947 1.578947 1.578947 1.578947 1.578947 1.578947 1.578947 1.578947 1.578947 1.578947 1.578947 1.578947 1.578947 1.578947 1.578947 1.578947 1.578947 1.578947 1.578947 1.578947 1.578947 1.578947 1.578947 1.578947 1.578947 1.578947 1.578947 1.578947 1.578947 1.578947 1.578947 1.578947 1.578947 1.578947 1.578947 1.578947 1.578947 1.578947 1.578947 1.578947 1.578947 1.578947 1.578947 1.578947 1.578947 1.578947 1.578947 1.578947 1.578947 1.578947 1.578947 1.578947 1.578947 1.578947 210.000000 510.000000 
Exchange Info, print out 238 local_values after swap: 0.619195 0.619195 0.619195 0.619195 0.619195 0.619195 0.619195 0.619195 0.619195 0.619195 0.619195 0.619195 0.619195 0.619195 0.619195 0.619195 0.619195 0.619195 0.619195 0.619195 0.619195 0.619195 0.619195 0.619195 0.619195 0.619195 0.619195 0.619195 0.619195 0.619195 0.619195 0.619195 0.619195 0.619195 0.619195 0.619195 0.619195 0.619195 0.619195 0.619195 0.619195 0.619195 0.619195 0.619195 0.645502 0.677721 0.723333 0.739428 0.790336 0.773394 0.810110 0.785909 0.818512 0.827091 0.863279 0.869221 0.910590 0.923240 0.951054 0.957545 0.988270 0.997639 1.035264 1.037817 1.061369 1.055160 1.025178 1.086015 1.152420 1.147186 1.143032 1.198354 1.225095 1.246869 1.263083 1.290183 1.350915 1.343727 1.356721 1.412888 1.395710 1.448545 1.416057 1.448546 1.475630 1.500163 1.480811 1.503736 1.578947 1.578947 1.573057 1.547988 1.547988 1.547988 1.547988 1.547988 1.547988 1.547988 1.547988 1.547988 1.547988 1.547988 1.547988 1.547988 1.547988 1.547988 1.547988 1.547988 1.547988 1.547988 1.547988 1.547988 1.547988 1.547988 1.547988 1.547988 1.547988 1.547988 1.547988 1.547988 1.547988 1.547988 1.547988 1.547988 1.547988 1.547988 1.547988 1.547988 1.547988 1.547988 1.547988 1.547988 1.547988 1.547988 1.547988 1.547988 1.547988 1.547988 1.547988 1.547988 1.547988 1.547988 1.547988 1.547988 1.547988 1.547988 1.547988 1.547988 1.547988 1.547988 1.547988 1.547988 1.547988 1.547988 1.547988 1.547988 1.547988 1.547988 1.547988 1.547988 1.547988 1.547988 1.547988 1.547988 1.547988 1.547988 1.547988 1.547988 1.547988 1.547988 1.547988 1.547988 1.547988 1.547988 1.547988 1.547988 1.547988 1.547988 1.547988 1.547988 1.547988 1.547988 1.547988 1.547988 1.547988 1.547988 1.547988 1.547988 1.547988 1.547988 1.547988 1.547988 1.547988 1.547988 1.547988 1.547988 1.547988 1.547988 1.547988 1.547988 1.547988 1.547988 1.547988 1.547988 1.547988 1.547988 1.547988 1.547988 1.547988 1.547988 1.547988 1.547988 1.547988 1.547988 1.547988 1.547988 1.547988 1.547988 1.547988 1.547988 1.547988 1.547988 1.547988 1.547988 1.547988 1.547988 1.547988 1.547988 1.547988 1.547988 1.547988 1.547988 1.547988 1.547988 1.547988 1.547988 200.000000 500.000000 
150500 0 1
151000 0 1
151500 0 1
152000 0 1
152500 0 1
153000 0 1
153500 0 1
154000 0 1
Exchange Info, print out 238 local_values before swap: 0.619195 0.619195 0.619195 0.619195 0.619195 0.619195 0.619195 0.619195 0.619195 0.619195 0.619195 0.619195 0.619195 0.619195 0.619195 0.619195 0.619195 0.619195 0.619195 0.619195 0.619195 0.619195 0.619195 0.619195 0.619195 0.619195 0.619195 0.619195 0.619195 0.619195 0.619195 0.619195 0.619195 0.619195 0.619195 0.619195 0.619195 0.619195 0.619195 0.619195 0.619195 0.619195 0.619195 0.619195 0.645502 0.677721 0.723333 0.739428 0.790336 0.773394 0.810110 0.785909 0.818512 0.827091 0.814816 0.807004 0.885061 0.909279 0.946776 0.951054 0.993714 0.995280 1.004785 1.028518 1.021033 1.055160 1.079516 1.096387 1.115762 1.164107 1.176033 1.210995 1.229868 1.250573 1.284932 1.302157 1.332385 1.336616 1.398802 1.450209 1.455223 1.422437 1.420837 1.440285 1.445230 1.547988 1.547988 1.512743 1.578947 1.578947 1.573057 1.547988 1.547988 1.547988 1.547988 1.547988 1.547988 1.547988 1.547988 1.547988 1.547988 1.547988 1.547988 1.547988 1.547988 1.547988 1.547988 1.547988 1.547988 1.547988 1.547988 1.547988 1.547988 1.547988 1.547988 1.547988 1.547988 1.547988 1.547988 1.547988 1.547988 1.547988 1.547988 1.547988 1.547988 1.547988 1.547988 1.547988 1.547988 1.547988 1.547988 1.547988 1.547988 1.547988 1.547988 1.547988 1.547988 1.547988 1.547988 1.547988 1.547988 1.547988 1.547988 1.547988 1.547988 1.547988 1.547988 1.547988 1.547988 1.547988 1.547988 1.547988 1.547988 1.547988 1.547988 1.547988 1.547988 1.547988 1.547988 1.547988 1.547988 1.547988 1.547988 1.547988 1.547988 1.547988 1.547988 1.547988 1.547988 1.547988 1.547988 1.547988 1.547988 1.547988 1.547988 1.547988 1.547988 1.547988 1.547988 1.547988 1.547988 1.547988 1.547988 1.547988 1.547988 1.547988 1.547988 1.547988 1.547988 1.547988 1.547988 1.547988 1.547988 1.547988 1.547988 1.547988 1.547988 1.547988 1.547988 1.547988 1.547988 1.547988 1.547988 1.547988 1.547988 1.547988 1.547988 1.547988 1.547988 1.547988 1.547988 1.547988 1.547988 1.547988 1.547988 1.547988 1.547988 1.547988 1.547988 1.547988 1.547988 1.547988 1.547988 1.547988 1.547988 1.547988 1.547988 1.547988 1.547988 1.547988 1.547988 1.547988 1.547988 1.547988 1.547988 1.547988 200.000000 500.000000 
Exchange Info, print out 238 local_values after swap: 0.650155 0.650155 0.650155 0.650155 0.650155 0.650155 0.650155 0.650155 0.650155 0.650155 0.650155 0.650155 0.650155 0.650155 0.650155 0.650155 0.650155 0.650155 0.650155 0.650155 0.650155 0.650155 0.650155 0.650155 0.650155 0.650155 0.650155 0.650155 0.650155 0.650155 0.650155 0.650155 0.650155 0.650155 0.650155 0.650155 0.650155 0.650155 0.650155 0.650155 0.644843 0.619195 0.619195 0.637321 0.669813 0.679911 0.699883 0.726660 0.741162 0.766816 0.786396 0.807518 0.829260 0.838622 0.850484 0.867426 0.879510 0.908621 0.941828 0.950334 0.915871 0.936242 0.977555 1.033565 1.071269 1.102124 1.115758 1.152415 1.138903 1.172750 1.163029 1.205211 1.220352 1.238303 1.266878 1.311619 1.282316 1.325385 1.369961 1.329572 1.336608 1.425642 1.430487 1.456902 1.456893 1.507336 1.536675 1.578947 1.578947 1.578947 1.578947 1.578947 1.578947 1.578947 1.578947 1.578947 1.578947 1.578947 1.578947 1.578947 1.578947 1.578947 1.578947 1.578947 1.578947 1.578947 1.578947 1.578947 1.578947 1.578947 1.578947 1.578947 1.578947 1.578947 1.578947 1.578947 1.578947 1.578947 1.578947 1.578947 1.578947 1.578947 1.578947 1.578947 1.578947 1.578947 1.578947 1.578947 1.578947 1.578947 1.578947 1.578947 1.578947 1.578947 1.578947 1.578947 1.578947 1.578947 1.578947 1.578947 1.578947 1.578947 1.578947 1.578947 1.578947 1.578947 1.578947 1.578947 1.578947 1.578947 1.578947 1.578947 1.578947 1.578947 1.578947 1.578947 1.578947 1.578947 1.578947 1.578947 1.578947 1.578947 1.578947 1.578947 1.578947 1.578947 1.578947 1.578947 1.578947 1.578947 1.578947 1.578947 1.578947 1.578947 1.578947 1.578947 1.578947 1.578947 1.578947 1.578947 1.578947 1.578947 1.578947 1.578947 1.578947 1.578947 1.578947 1.578947 1.578947 1.578947 1.578947 1.578947 1.578947 1.578947 1.578947 1.578947 1.578947 1.578947 1.578947 1.578947 1.578947 1.578947 1.578947 1.578947 1.578947 1.578947 1.578947 1.578947 1.578947 1.578947 1.578947 1.578947 1.578947 1.578947 1.578947 1.578947 1.578947 1.578947 1.578947 1.578947 1.578947 1.578947 1.578947 1.578947 1.578947 1.578947 1.578947 1.578947 1.578947 1.578947 1.578947 1.578947 1.578947 1.578947 1.578947 1.578947 210.000000 510.000000 
154500 1 0
155000 1 0
155500 1 0
156000 1 0
156500 1 0
157000 1 0
157500 1 0
158000 1 0
158500 1 0
159000 1 0
159500 1 0
160000 1 0
160500 1 0
161000 1 0
161500 1 0
162000 1 0
162500 1 0
163000 1 0
163500 1 0
164000 1 0
164500 1 0
165000 1 0
165500 1 0
166000 1 0
166500 1 0
167000 1 0
167500 1 0
168000 1 0
168500 1 0
169000 1 0
169500 1 0
170000 1 0
170500 1 0
171000 1 0
171500 1 0
172000 1 0
172500 1 0
173000 1 0
173500 1 0
174000 1 0
174500 1 0
175000 1 0
175500 1 0
176000 1 0
176500 1 0
177000 1 0
177500 1 0
178000 1 0
178500 1 0
179000 1 0
179500 1 0
180000 1 0
180500 1 0
181000 1 0
181500 1 0
182000 1 0
182500 1 0
183000 1 0
183500 1 0
184000 1 0
184500 1 0
185000 1 0
185500 1 0
186000 1 0
186500 1 0
187000 1 0
187500 1 0
188000 1 0
188500 1 0
189000 1 0
189500 1 0
190000 1 0
190500 1 0
191000 1 0
191500 1 0
192000 1 0
192500 1 0
193000 1 0
193500 1 0
194000 1 0
194500 1 0
195000 1 0
195500 1 0
196000 1 0
196500 1 0
197000 1 0
197500 1 0
198000 1 0
198500 1 0
199000 1 0
199500 1 0
200000 1 0
200500 1 0
201000 1 0
201500 1 0
202000 1 0
202500 1 0
203000 1 0
203500 1 0
204000 1 0
204500 1 0
205000 1 0
205500 1 0
206000 1 0
206500 1 0
207000 1 0
207500 1 0
208000 1 0
208500 1 0
209000 1 0
209500 1 0
210000 1 0
210500 1 0
211000 1 0
211500 1 0
212000 1 0
212500 1 0
213000 1 0
213500 1 0
214000 1 0
214500 1 0
215000 1 0
215500 1 0
216000 1 0
216500 1 0
217000 1 0
217500 1 0
218000 1 0
218500 1 0
219000 1 0
219500 1 0
220000 1 0
220500 1 0
221000 1 0
221500 1 0
222000 1 0
222500 1 0
223000 1 0
223500 1 0
224000 1 0
224500 1 0
225000 1 0
225500 1 0
226000 1 0
226500 1 0
227000 1 0
227500 1 0
228000 1 0
228500 1 0
229000 1 0
229500 1 0
230000 1 0
230500 1 0
231000 1 0
231500 1 0
232000 1 0
232500 1 0
233000 1 0
Exchange Info, print out 238 local_values before swap: 0.650155 0.650155 0.650155 0.650155 0.650155 0.650155 0.650155 0.650155 0.650155 0.650155 0.650155 0.650155 0.650155 0.650155 0.650155 0.650155 0.650155 0.650155 0.650155 0.650155 0.650155 0.650155 0.650155 0.650155 0.650155 0.650155 0.650155 0.650155 0.650155 0.650155 0.650155 0.650155 0.650155 0.650155 0.650155 0.650155 0.650155 0.650155 0.650155 0.650155 0.643856 0.619195 0.619195 0.656199 0.688812 0.709319 0.733633 0.745978 0.774340 0.801877 0.811670 0.810628 0.834190 0.827087 0.841417 0.852781 0.852206 0.878286 0.922562 0.950334 0.975290 1.029352 1.041235 1.049892 1.072178 1.098290 1.127715 1.145100 1.135830 1.163029 1.204062 1.229861 1.214483 1.288860 1.263076 1.308900 1.330973 1.350907 1.355257 1.395702 1.405019 1.406585 1.401900 1.482560 1.430495 1.544202 1.547988 1.547988 1.547988 1.578947 1.578947 1.578947 1.578947 1.578947 1.578947 1.578947 1.578947 1.578947 1.578947 1.578947 1.578947 1.578947 1.578947 1.578947 1.578947 1.578947 1.578947 1.578947 1.578947 1.578947 1.578947 1.578947 1.578947 1.578947 1.578947 1.578947 1.578947 1.578947 1.578947 1.578947 1.578947 1.578947 1.578947 1.578947 1.578947 1.578947 1.578947 1.578947 1.578947 1.578947 1.578947 1.578947 1.578947 1.578947 1.578947 1.578947 1.578947 1.578947 1.578947 1.578947 1.578947 1.578947 1.578947 1.578947 1.578947 1.578947 1.578947 1.578947 1.578947 1.578947 1.578947 1.578947 1.578947 1.578947 1.578947 1.578947 1.578947 1.578947 1.578947 1.578947 1.578947 1.578947 1.578947 1.578947 1.578947 1.578947 1.578947 1.578947 1.578947 1.578947 1.578947 1.578947 1.578947 1.578947 1.578947 1.578947 1.578947 1.578947 1.578947 1.578947 1.578947 1.578947 1.578947 1.578947 1.578947 1.578947 1.578947 1.578947 1.578947 1.578947 1.578947 1.578947 1.578947 1.578947 1.578947 1.578947 1.578947 1.578947 1.578947 1.578947 1.578947 1.578947 1.578947 1.578947 1.578947 1.578947 1.578947 1.578947 1.578947 1.578947 1.578947 1.578947 1.578947 1.578947 1.578947 1.578947 1.578947 1.578947 1.578947 1.578947 1.578947 1.578947 1.578947 1.578947 1.578947 1.578947 1.578947 1.578947 1.578947 1.578947 1.578947 1.578947 1.578947 1.578947 1.578947 1.578947 210.000000 510.000000 
Exchange Info, print out 238 local_values after swap: 0.619195 0.619195 0.619195 0.619195 0.619195 0.619195 0.619195 0.619195 0.619195 0.619195 0.619195 0.619195 0.619195 0.619195 0.619195 0.619195 0.619195 0.619195 0.619195 0.619195 0.619195 0.619195 0.619195 0.619195 0.619195 0.619195 0.619195 0.619195 0.619195 0.619195 0.619195 0.619195 0.619195 0.619195 0.619195 0.619195 0.619195 0.619195 0.619195 0.619195 0.619195 0.619195 0.650155 0.650155 0.650155 0.693351 0.774818 0.779601 0.756257 0.813765 0.800862 0.859167 0.872223 0.850487 0.898923 0.869221 0.895099 0.924592 0.934168 0.947486 0.977559 0.985955 1.017742 1.038671 1.074921 1.089763 1.120714 1.133795 1.131763 1.188206 1.208677 1.185973 1.251813 1.239525 1.275845 1.322616 1.319851 1.322616 1.361108 1.367002 1.381963 1.409733 1.433743 1.456902 1.458575 1.494835 1.559448 1.578947 1.578947 1.578947 1.578947 1.547988 1.547988 1.547988 1.547988 1.547988 1.547988 1.547988 1.547988 1.547988 1.547988 1.547988 1.547988 1.547988 1.547988 1.547988 1.547988 1.547988 1.547988 1.547988 1.547988 1.547988 1.547988 1.547988 1.547988 1.547988 1.547988 1.547988 1.547988 1.547988 1.547988 1.547988 1.547988 1.547988 1.547988 1.547988 1.547988 1.547988 1.547988 1.547988 1.547988 1.547988 1.547988 1.547988 1.547988 1.547988 1.547988 1.547988 1.547988 1.547988 1.547988 1.547988 1.547988 1.547988 1.547988 1.547988 1.547988 1.547988 1.547988 1.547988 1.547988 1.547988 1.547988 1.547988 1.547988 1.547988 1.547988 1.547988 1.547988 1.547988 1.547988 1.547988 1.547988 1.547988 1.547988 1.547988 1.547988 1.547988 1.547988 1.547988 1.547988 1.547988 1.547988 1.547988 1.547988 1.547988 1.547988 1.547988 1.547988 1.547988 1.547988 1.547988 1.547988 1.547988 1.547988 1.547988 1.547988 1.547988 1.547988 1.547988 1.547988 1.547988 1.547988 1.547988 1.547988 1.547988 1.547988 1.547988 1.547988 1.547988 1.547988 1.547988 1.547988 1.547988 1.547988 1.547988 1.547988 1.547988 1.547988 1.547988 1.547988 1.547988 1.547988 1.547988 1.547988 1.547988 1.547988 1.547988 1.547988 1.547988 1.547988 1.547988 1.547988 1.547988 1.547988 1.547988 1.547988 1.547988 1.547988 1.547988 1.547988 1.547988 1.547988 1.547988 1.547988 1.547988 200.000000 500.000000 
233500 0 1
234000 0 1
234500 0 1
235000 0 1
235500 0 1
236000 0 1
236500 0 1
237000 0 1
237500 0 1
238000 0 1
238500 0 1
239000 0 1
239500 0 1
240000 0 1
240500 0 1
241000 0 1
241500 0 1
242000 0 1
242500 0 1
243000 0 1
243500 0 1
244000 0 1
244500 0 1
245000 0 1
245500 0 1
246000 0 1
246500 0 1
247000 0 1
247500 0 1
248000 0 1
248500 0 1
249000 0 1
249500 0 1
250000 0 1
250500 0 1
251000 0 1
251500 0 1
252000 0 1
252500 0 1
253000 0 1
253500 0 1
254000 0 1
254500 0 1
255000 0 1
255500 0 1
256000 0 1
256500 0 1
257000 0 1
257500 0 1
258000 0 1
258500 0 1
259000 0 1
259500 0 1
260000 0 1
260500 0 1
261000 0 1
261500 0 1
262000 0 1
262500 0 1
263000 0 1
263500 0 1
264000 0 1
264500 0 1
265000 0 1
265500 0 1
266000 0 1
266500 0 1
267000 0 1
267500 0 1
268000 0 1
268500 0 1
269000 0 1
269500 0 1
270000 0 1
270500 0 1
271000 0 1
271500 0 1
272000 0 1
272500 0 1
273000 0 1
273500 0 1
274000 0 1
274500 0 1
275000 0 1
275500 0 1
276000 0 1
276500 0 1
277000 0 1
277500 0 1
278000 0 1
278500 0 1
279000 0 1
279500 0 1
280000 0 1
280500 0 1
281000 0 1
281500 0 1
282000 0 1
282500 0 1
283000 0 1
283500 0 1
284000 0 1
284500 0 1
285000 0 1
285500 0 1
286000 0 1
Exchange Info, print out 238 local_values before swap: 0.619195 0.619195 0.619195 0.619195 0.619195 0.619195 0.619195 0.619195 0.619195 0.619195 0.619195 0.619195 0.619195 0.619195 0.619195 0.619195 0.619195 0.619195 0.619195 0.619195 0.619195 0.619195 0.619195 0.619195 0.619195 0.619195 0.619195 0.619195 0.619195 0.619195 0.619195 0.619195 0.619195 0.619195 0.619195 0.619195 0.619195 0.619195 0.619195 0.619195 0.619195 0.619195 0.619195 0.643164 0.683591 0.646494 0.662952 0.710313 0.756710 0.781531 0.779601 0.785909 0.810110 0.839183 0.863279 0.894465 0.904718 0.933478 0.942535 0.967078 1.007188 1.018562 1.003986 0.982122 1.032724 1.102128 1.128728 1.139936 1.164107 1.144068 1.158765 1.176032 1.232268 1.218004 1.239525 1.278428 1.298141 1.330980 1.369968 1.368483 1.381963 1.437006 1.425650 1.467058 1.514568 1.547988 1.547988 1.547988 1.547988 1.578947 1.578947 1.547988 1.547988 1.547988 1.547988 1.547988 1.547988 1.547988 1.547988 1.547988 1.547988 1.547988 1.547988 1.547988 1.547988 1.547988 1.547988 1.547988 1.547988 1.547988 1.547988 1.547988 1.547988 1.547988 1.547988 1.547988 1.547988 1.547988 1.547988 1.547988 1.547988 1.547988 1.547988 1.547988 1.547988 1.547988 1.547988 1.547988 1.547988 1.547988 1.547988 1.547988 1.547988 1.547988 1.547988 1.547988 1.547988 1.547988 1.547988 1.547988 1.547988 1.547988 1.547988 1.547988 1.547988 1.547988 1.547988 1.547988 1.547988 1.547988 1.547988 1.547988 1.547988 1.547988 1.547988 1.547988 1.547988 1.547988 1.547988 1.547988 1.547988 1.547988 1.547988 1.547988 1.547988 1.547988 1.547988 1.547988 1.547988 1.547988 1.547988 1.547988 1.547988 1.547988 1.547988 1.547988 1.547988 1.547988 1.547988 1.547988 1.547988 1.547988 1.547988 1.547988 1.547988 1.547988 1.547988 1.547988 1.547988 1.547988 1.547988 1.547988 1.547988 1.547988 1.547988 1.547988 1.547988 1.547988 1.547988 1.547988 1.547988 1.547988 1.547988 1.547988 1.547988 1.547988 1.547988 1.547988 1.547988 1.547988 1.547988 1.547988 1.547988 1.547988 1.547988 1.547988 1.547988 1.547988 1.547988 1.547988 1.547988 1.547988 1.547988 1.547988 1.547988 1.547988 1.547988 1.547988 1.547988 1.547988 1.547988 1.547988 1.547988 1.547988 1.547988 1.547988 200.000000 500.000000 
Exchange Info, print out 238 local_values after swap: 0.650155 0.650155 0.650155 0.650155 0.650155 0.650155 0.650155 0.650155 0.650155 0.650155 0.650155 0.650155 0.650155 0.650155 0.650155 0.650155 0.650155 0.650155 0.650155 0.650155 0.650155 0.650155 0.650155 0.650155 0.650155 0.650155 0.650155 0.650155 0.650155 0.650155 0.650155 0.650155 0.650155 0.650155 0.650155 0.650155 0.650155 0.650155 0.650155 0.650155 0.643856 0.619195 0.650155 0.650155 0.650155 0.683222 0.731084 0.741597 0.767749 0.782013 0.819572 0.832541 0.848198 0.866236 0.885679 0.879510 0.915207 0.909276 0.935548 0.967074 0.973036 0.985952 0.996848 1.034412 1.044681 1.097336 1.103087 1.118723 1.121704 1.147180 1.154523 1.202915 1.245632 1.259297 1.284925 1.323996 1.342292 1.358172 1.378937 1.386507 1.414462 1.406585 1.486040 1.546093 1.496617 1.512743 1.477346 1.573046 1.578947 1.578947 1.578947 1.578947 1.578947 1.578947 1.578947 1.578947 1.578947 1.578947 1.578947 1.578947 1.578947 1.578947 1.578947 1.578947 1.578947 1.578947 1.578947 1.578947 1.578947 1.578947 1.578947 1.578947 1.578947 1.578947 1.578947 1.578947 1.578947 1.578947 1.578947 1.578947 1.578947 1.578947 1.578947 1.578947 1.578947 1.578947 1.578947 1.578947 1.578947 1.578947 1.578947 1.578947 1.578947 1.578947 1.578947 1.578947 1.578947 1.578947 1.578947 1.578947 1.578947 1.578947 1.578947 1.578947 1.578947 1.578947 1.578947 1.578947 1.578947 1.578947 1.578947 1.578947 1.578947 1.578947 1.578947 1.578947 1.578947 1.578947 1.578947 1.578947 1.578947 1.578947 1.578947 1.578947 1.578947 1.578947 1.578947 1.578947 1.578947 1.578947 1.578947 1.578947 1.578947 1.578947 1.578947 1.578947 1.578947 1.578947 1.578947 1.578947 1.578947 1.578947 1.578947 1.578947 1.578947 1.578947 1.578947 1.578947 1.578947 1.578947 1.578947 1.578947 1.578947 1.578947 1.578947 1.578947 1.578947 1.578947 1.578947 1.578947 1.578947 1.578947 1.578947 1.578947 1.578947 1.578947 1.578947 1.578947 1.578947 1.578947 1.578947 1.578947 1.578947 1.578947 1.578947 1.578947 1.578947 1.578947 1.578947 1.578947 1.578947 1.578947 1.578947 1.578947 1.578947 1.578947 1.578947 1.578947 1.578947 1.578947 1.578947 1.578947 1.578947 1.578947 1.578947 1.578947 210.000000 510.000000 
286500 1 0
287000 1 0
287500 1 0
288000 1 0
288500 1 0
289000 1 0
289500 1 0
290000 1 0
290500 1 0
291000 1 0
291500 1 0
292000 1 0
292500 1 0
293000 1 0
293500 1 0
294000 1 0
294500 1 0
295000 1 0
295500 1 0
296000 1 0
296500 1 0
297000 1 0
297500 1 0
298000 1 0
298500 1 0
299000 1 0
299500 1 0
300000 1 0
