LAMMPS data file via write_data, version 10 Jun 2014, timestep = 1000

12261 atoms
6 atom types
4290 bonds
2 bond types
3120 angles
2 angle types

-7.0284656341182696e+00 1.0452846563412012e+02 xlo xhi
-7.0232651404751394e+00 1.0445112306047392e+02 ylo yhi
1.3324570085187403e+01 1.3667542991479974e+02 zlo zhi

Masses

1 72
2 72
3 72
4 72
5 72
6 72

Atoms # full

4930 640 1 0.0000000000000000e+00 -5.0809824513115807e+00 -5.9899193055776720e+00 1.4955049718150853e+01 -1 1 1
723 61 4 0.0000000000000000e+00 -3.5508472900878312e+00 -1.8124864171316893e-01 1.4038429157427109e+01 0 0 0
3608 301 5 0.0000000000000000e+00 -4.4638515537266354e-01 -4.3682335982251255e+00 1.9782359765205982e+01 1 0 0
724 61 4 0.0000000000000000e+00 -4.2376820165328315e+00 -1.0228771463160171e+00 1.7051042619298617e+01 0 0 0
729 61 5 0.0000000000000000e+00 -2.4456827190548176e+00 -1.7154986780606268e-01 2.0521256751442685e+01 0 0 0
11339 7049 1 0.0000000000000000e+00 -7.4759822869050330e-01 -5.3106357778352073e+00 1.3380554413699159e+01 2 1 1
461 39 5 0.0000000000000000e+00 5.1857519431653305e+00 -2.7838795761723536e+00 1.8757975329343797e+01 0 0 0
725 61 5 0.0000000000000000e+00 7.2151826274364772e-01 -5.9004869614110989e-01 1.6513579270336283e+01 0 0 0
459 39 4 0.0000000000000000e+00 6.6880267656951586e+00 -3.0277893845074071e+00 1.5796251920845851e+01 0 0 0
465 39 5 0.0000000000000000e+00 1.0692601078382189e+01 -5.0248613355006766e+00 2.0500745066999837e+01 0 0 0
796 67 4 0.0000000000000000e+00 1.4771688104600720e+01 -3.8193019294535424e+00 1.5408493011389217e+01 0 0 0
460 39 4 0.0000000000000000e+00 1.0576336912268658e+01 -3.3537951444604857e+00 1.7727216028514938e+01 0 0 0
795 67 4 0.0000000000000000e+00 1.6754784016266665e+01 -5.1761328595357661e+00 1.4915197517497731e+01 0 0 0
801 67 5 0.0000000000000000e+00 1.5461674162120040e+01 -5.7673579880573778e+00 1.9700117647182861e+01 0 0 0
797 67 5 0.0000000000000000e+00 2.0186304841498067e+01 -6.3756456490031193e+00 1.8689088515056117e+01 0 0 0
2142 179 5 0.0000000000000000e+00 1.7843819803661891e+01 -1.5387837088774527e+00 1.8770764036249222e+01 1 1 0
29 3 5 0.0000000000000000e+00 2.3174688389120341e+01 -1.5707976924302687e+00 1.8772283784336693e+01 0 0 0
33 3 5 0.0000000000000000e+00 2.6799929620903100e+01 -4.9134424136380002e+00 1.8740548431478953e+01 0 0 0
28 3 4 0.0000000000000000e+00 2.4940447046508218e+01 -5.7174786335471737e+00 1.6230318205150894e+01 0 0 0
27 3 4 0.0000000000000000e+00 2.5864411656844155e+01 -3.1574729957224452e+00 1.3949550221014325e+01 0 0 0
1586 133 3 -1.0000000000000000e+00 2.9657121621874445e+01 -5.8955521632808274e+00 1.3405956129694417e+01 0 0 0
1587 133 4 0.0000000000000000e+00 3.0891519246171814e+01 -1.6975463675289881e+00 1.4434805984845530e+01 0 0 0
1589 133 5 0.0000000000000000e+00 3.3587929253101507e+01 -9.6781758901575488e-01 1.7880354198467909e+01 0 0 0
1492 125 4 0.0000000000000000e+00 3.7395196396100985e+01 -3.6125656876380612e+00 1.6423544100743992e+01 0 0 0
4449 371 5 0.0000000000000000e+00 3.2907779633605088e+01 -6.0751615684897891e+00 1.8604833855540868e+01 1 0 0
1497 125 5 0.0000000000000000e+00 3.9964424201046533e+01 -5.4700013834922325e+00 2.0088342627824531e+01 0 0 0
1491 125 4 0.0000000000000000e+00 4.0785851557118278e+01 -2.6396235733686995e+00 1.6524947087449124e+01 0 0 0
4441 371 2 1.0000000000000000e+00 4.3168975231524009e+01 -6.6610680132500706e+00 1.3895567619167075e+01 1 0 0
6259 1969 1 0.0000000000000000e+00 4.8102333303092053e+01 -6.2449346511173589e+00 1.5240599527921649e+01 -3 2 1
4492 375 4 0.0000000000000000e+00 4.5124632113457345e+01 -1.1820206271628428e+00 1.4907618527459119e+01 1 0 0
4497 375 5 0.0000000000000000e+00 4.5519145786515494e+01 -3.7443788164869014e+00 1.9280253934685359e+01 1 0 0
2620 219 4 0.0000000000000000e+00 5.2177108423021195e+01 -5.3169849545351688e-01 1.7454193288879416e+01 0 0 0
1184 99 5 0.0000000000000000e+00 4.8989572945625291e+01 -6.8399270662779088e+00 1.9675223320437443e+01 0 0 0
2619 219 4 0.0000000000000000e+00 5.3423926985551212e+01 -2.7573027273038195e+00 1.6922106113138675e+01 0 0 0
580 49 4 0.0000000000000000e+00 5.8555755959698203e+01 -4.0373588195762355e+00 1.7494026683376990e+01 0 0 0
581 49 5 0.0000000000000000e+00 5.6297215600341019e+01 2.3893478270233560e-02 1.9943690630572874e+01 0 0 0
579 49 4 0.0000000000000000e+00 5.9270376905296999e+01 -4.4724570994395629e-01 1.7405703746412271e+01 0 0 0
2284 191 4 0.0000000000000000e+00 6.3050287774523035e+01 -6.0188630494320021e+00 1.8002539310036465e+01 0 0 0
2212 185 4 0.0000000000000000e+00 6.6042424218984607e+01 -1.0718833127292051e+00 1.8073245734969760e+01 0 0 0
1833 153 5 0.0000000000000000e+00 6.7769867450443385e+01 -6.5893919953433491e+00 1.9417063997734878e+01 0 0 0
3986 333 3 -1.0000000000000000e+00 7.3304013215278971e+01 -2.0992952754783096e+00 1.4036406412615728e+01 0 0 0
3987 333 4 0.0000000000000000e+00 7.4888106791947251e+01 -3.7387417874294178e+00 1.6442660828590373e+01 0 0 0
3988 333 4 0.0000000000000000e+00 7.7570121312414258e+01 -1.7747706353513666e+00 1.8752722972688648e+01 0 0 0
1130 95 3 -1.0000000000000000e+00 8.1651265460021207e+01 -2.8005051148117928e+00 1.5810284529464045e+01 0 0 0
3289 275 2 1.0000000000000000e+00 7.8088641858653489e+01 2.2466267920975541e-01 1.4136823949801498e+01 0 0 0
1131 95 4 0.0000000000000000e+00 8.4481568808130419e+01 -3.2802468629519073e+00 1.8843433336358633e+01 0 0 0
1132 95 4 0.0000000000000000e+00 8.2631850621631827e+01 -2.5524132372621916e-01 2.0339604456600561e+01 0 0 0
5026 736 1 0.0000000000000000e+00 8.7991294205679324e+01 -6.7802409240600738e+00 1.6797619944853963e+01 0 3 1
6567 2277 1 0.0000000000000000e+00 8.9428257977156193e+01 -2.1771175688848539e+00 1.5564766199227265e+01 -1 2 1
1780 149 4 0.0000000000000000e+00 9.2890499121202225e+01 -7.8284071785676723e-01 1.8986602542417589e+01 0 1 0
2548 213 4 0.0000000000000000e+00 9.2544440079100895e+01 -6.0295323974677908e+00 1.7957588733887281e+01 0 0 0
3146 263 3 -1.0000000000000000e+00 9.5171659551420532e+01 -2.3460169908487627e+00 1.4733897627861488e+01 0 1 0
3147 263 4 0.0000000000000000e+00 9.7566642489310155e+01 -2.8918703423073104e+00 1.7302009760036476e+01 0 1 0
3148 263 4 0.0000000000000000e+00 9.9535092705063093e+01 -6.6573183825405078e+00 1.7159166659134172e+01 0 1 0
4347 363 4 0.0000000000000000e+00 1.0229155554576188e+02 -2.9424850209672333e+00 1.4858124738002598e+01 0 0 0
4349 363 5 0.0000000000000000e+00 1.0286901805741122e+02 -2.7510679934602953e+00 1.8909396277505802e+01 0 0 0
3145 263 2 1.0000000000000000e+00 9.7498676483236309e+01 2.5631540397132513e-01 1.4004763319223532e+01 0 1 0
4061 339 5 0.0000000000000000e+00 -4.5703889038947541e+00 4.5244298225207142e+00 1.6877231139065401e+01 1 0 0
4062 339 5 0.0000000000000000e+00 -5.4674103695714740e+00 3.5586647662475261e+00 2.0470600711465526e+01 1 0 0
4329 361 5 0.0000000000000000e+00 6.7486645556742819e-01 4.4983037832671275e+00 1.7867922732093618e+01 1 0 0
4324 361 4 0.0000000000000000e+00 8.5546145589935119e-01 7.5784172082566705e+00 1.5220637340009644e+01 1 0 0
4325 361 5 0.0000000000000000e+00 4.7048254011057002e+00 2.0556120510060207e+00 1.6460762429076055e+01 1 0 0
4326 361 5 0.0000000000000000e+00 7.2340919480193131e+00 1.7470639276847488e+00 1.9392746312886072e+01 1 0 0
3705 309 5 0.0000000000000000e+00 6.0686774229121525e+00 6.7021778547191682e+00 1.7150194986293958e+01 1 0 0
3701 309 5 0.0000000000000000e+00 1.3291213379096636e+01 1.4842713273185923e+00 1.5837510083237268e+01 1 0 0
4328 361 5 0.0000000000000000e+00 1.2645255862728604e+01 7.3078700493541842e+00 1.6785652335234879e+01 1 0 0
4327 361 5 0.0000000000000000e+00 1.0114233671967158e+01 3.9921654060158374e+00 1.8727231297122422e+01 1 0 0
3700 309 4 0.0000000000000000e+00 8.4995557950799991e+00 4.6590327208992228e+00 1.3810903716996028e+01 1 0 0
2141 179 5 0.0000000000000000e+00 2.0220613696875311e+01 9.8131390982521483e-01 1.6070105418814496e+01 1 1 0
3702 309 5 0.0000000000000000e+00 1.5969173769501195e+01 4.5335245086841329e+00 1.9081443593702748e+01 1 0 0
2145 179 5 0.0000000000000000e+00 1.9079526209260543e+01 7.7250490229939643e+00 1.6893403062865559e+01 1 1 0
1595 133 5 0.0000000000000000e+00 2.1005924525239692e+01 3.5433593566236197e+00 1.9774156578755498e+01 0 0 0
1593 133 5 0.0000000000000000e+00 2.8385669810940890e+01 1.1216646794133387e+00 1.7628664175611874e+01 0 0 0
678 57 5 0.0000000000000000e+00 2.6022687127690766e+01 4.7026336474746380e+00 1.4657899966560747e+01 0 1 0
679 57 5 0.0000000000000000e+00 2.4309935682071011e+01 7.7481491551841302e+00 1.9129535871525182e+01 0 1 0
78 7 5 0.0000000000000000e+00 2.9465939707490456e+01 4.6079426840019710e+00 2.0371593922917139e+01 0 0 0
76 7 4 0.0000000000000000e+00 3.6430269040791629e+01 1.0403723510954666e+00 1.4541633874366372e+01 0 0 0
77 7 5 0.0000000000000000e+00 3.1982734654135459e+01 3.7637822006566526e+00 1.6208015410784519e+01 0 0 0
81 7 5 0.0000000000000000e+00 3.8333098823785889e+01 1.5904108778726631e+00 1.8098462129230434e+01 0 0 0
57 5 5 0.0000000000000000e+00 3.8234233192409555e+01 6.2865766719747951e+00 1.6693664990124606e+01 0 0 0
2596 217 4 0.0000000000000000e+00 4.1449350974815871e+01 3.1627125883706388e+00 1.4542266434893660e+01 0 0 0
2601 217 5 0.0000000000000000e+00 4.5974868303997795e+01 5.7979923508700955e+00 1.3866983983473226e+01 0 0 0
4491 375 4 0.0000000000000000e+00 4.7864370554960495e+01 1.3618072678525635e+00 1.4714092363910762e+01 1 0 0
1257 105 5 0.0000000000000000e+00 5.2092784155374517e+01 6.1832826809675625e+00 2.0150225668032220e+01 0 0 0
11123 6833 1 0.0000000000000000e+00 5.0706615091873296e+01 5.2959767528704207e+00 1.4944829599691724e+01 1 -1 1
4493 375 5 0.0000000000000000e+00 4.8451367710884973e+01 1.6870866339762693e+00 1.9475208896118154e+01 1 0 0
60 5 5 0.0000000000000000e+00 4.7057882175046970e+01 6.7207816392433291e+00 1.8943824467258224e+01 0 0 0
1252 105 4 0.0000000000000000e+00 5.5361874118328025e+01 3.8980756548386255e+00 1.7389502906006978e+01 0 0 0
1251 105 4 0.0000000000000000e+00 5.6270729917328673e+01 5.5230379360273529e+00 1.5062754546477759e+01 0 0 0
2980 249 4 0.0000000000000000e+00 6.0430409922485424e+01 4.6853268614702133e+00 1.7864305906519689e+01 0 0 0
2979 249 4 0.0000000000000000e+00 6.1094339601524219e+01 6.3205301610480973e+00 1.4015024166325761e+01 0 0 0
2211 185 4 0.0000000000000000e+00 6.4620882482789455e+01 1.9721554571058939e+00 1.6459319928130746e+01 0 0 0
2981 249 5 0.0000000000000000e+00 6.3936235785433190e+01 7.6756843920271374e+00 1.8467422590026548e+01 0 0 0
578 49 3 -1.0000000000000000e+00 6.0222669781313229e+01 8.9335380487000460e-01 1.4049327198968069e+01 0 0 0
2955 247 4 0.0000000000000000e+00 7.3740782693648910e+01 2.9503094555119942e+00 1.6773678300955975e+01 0 0 0
2956 247 4 0.0000000000000000e+00 7.2223344199708251e+01 4.9768189325713336e-01 1.8131981035228222e+01 0 0 0
3721 311 2 1.0000000000000000e+00 6.8940111888528023e+01 3.6833011591755151e+00 1.4741723172195853e+01 0 0 0
3293 275 5 0.0000000000000000e+00 8.0919177768396025e+01 3.6244282702746871e+00 1.8531609771203065e+01 0 0 0
2957 247 5 0.0000000000000000e+00 7.6468245841782334e+01 2.4123438501590573e+00 2.0572895613922654e+01 0 0 0
3291 275 4 0.0000000000000000e+00 8.1417060271728474e+01 4.0506937372719989e+00 1.3672052124617824e+01 0 0 0
9404 5114 1 0.0000000000000000e+00 7.7495583046802039e+01 7.3658550776810863e+00 1.4197143682395735e+01 1 0 1
3676 307 4 0.0000000000000000e+00 8.8059891963087438e+01 5.5833550569839474e+00 1.4850040415590399e+01 0 0 0
9802 5512 1 0.0000000000000000e+00 8.5736631362093661e+01 9.0773951592861157e-01 1.6018743808716238e+01 -2 1 1
3292 275 4 0.0000000000000000e+00 8.3052409949858003e+01 6.3436705241340468e+00 1.4574934736297202e+01 0 0 0
3681 307 5 0.0000000000000000e+00 8.6210630194417831e+01 4.5876898452143688e+00 1.8731516362889607e+01 0 0 0
1779 149 4 0.0000000000000000e+00 9.0823939132794990e+01 1.5955319078914809e+00 1.8159739363451571e+01 0 1 0
3243 271 4 0.0000000000000000e+00 9.5337941585605293e+01 7.2332220803554703e+00 1.9044545424507920e+01 0 0 0
3242 271 3 -1.0000000000000000e+00 9.3523853631371850e+01 7.6133580691579734e+00 1.4252963449593333e+01 0 0 0
3244 271 4 0.0000000000000000e+00 9.6611659808814522e+01 4.7084327215632369e+00 1.6985080865326452e+01 0 0 0
3677 307 5 0.0000000000000000e+00 9.0265821540966513e+01 7.1908535372533740e+00 1.9247304226979271e+01 0 0 0
1778 149 3 -1.0000000000000000e+00 9.2449201090551199e+01 2.0726604928042733e+00 1.4564451649427596e+01 0 1 0
4353 363 5 0.0000000000000000e+00 1.0089166661906840e+02 1.9815533862717916e+00 1.9920120068071451e+01 0 0 0
4348 363 4 0.0000000000000000e+00 1.0227866197192236e+02 8.5133636092836007e-01 1.5684521043258918e+01 0 0 0
2908 243 4 0.0000000000000000e+00 1.0062229212621209e+02 7.0458045161144165e+00 1.8542894725035772e+01 0 0 0
2907 243 4 0.0000000000000000e+00 1.0228787137479868e+02 5.7616053904417805e+00 1.6556636503985178e+01 0 0 0
4060 339 4 0.0000000000000000e+00 -4.3158292084466705e+00 8.8022326082289162e+00 1.4982822212611255e+01 1 0 0
2909 243 5 0.0000000000000000e+00 -6.7629331974359586e+00 8.6692190514085219e+00 2.0007601430376333e+01 1 0 0
4065 339 5 0.0000000000000000e+00 -9.8637394995713124e-01 9.0638014577484558e+00 1.9901321985739994e+01 1 0 0
2049 171 5 0.0000000000000000e+00 -2.7104338156963748e-01 1.4240184530441235e+01 1.9879086981644054e+01 1 0 0
2044 171 4 0.0000000000000000e+00 -9.5661436179697668e-01 1.3497764944793722e+01 1.6189174217628576e+01 1 0 0
3793 317 2 1.0000000000000000e+00 -4.9552015710072306e+00 1.3632432972719974e+01 1.3338857869777300e+01 1 0 0
2045 171 5 0.0000000000000000e+00 3.5723829372059765e+00 1.0989537487260966e+01 1.7542471457705066e+01 1 0 0
3630 303 5 0.0000000000000000e+00 8.8074245288842619e+00 1.3339112505126348e+01 2.0260186569682777e+01 1 0 0
3629 303 5 0.0000000000000000e+00 9.0871728347957124e+00 1.2414562992554275e+01 1.5913445227648477e+01 1 0 0
4377 365 5 0.0000000000000000e+00 1.3872445979604185e+01 1.4901324448198078e+01 1.4451421411319544e+01 1 0 0
4375 365 5 0.0000000000000000e+00 1.2725095663010135e+01 1.0517291321855463e+01 2.0400953023881179e+01 1 0 0
3777 315 5 0.0000000000000000e+00 2.2280384030874227e+01 1.0808997126065609e+01 1.3719933862341819e+01 1 0 0
4374 365 5 0.0000000000000000e+00 1.6243638245751050e+01 1.1783324525302158e+01 1.7597464155118935e+01 1 0 0
4373 365 5 0.0000000000000000e+00 1.5333453247074029e+01 1.0034228414928654e+01 1.3876385165999439e+01 1 0 0
3778 315 5 0.0000000000000000e+00 2.2551318564334274e+01 1.2627915488270890e+01 1.8061648503480807e+01 1 0 0
682 57 5 0.0000000000000000e+00 2.8712659673566122e+01 1.4545239556006846e+01 1.5880871192453958e+01 0 1 0
683 57 5 0.0000000000000000e+00 2.7816792418769083e+01 1.5124610266269237e+01 1.9476948551384552e+01 0 1 0
681 57 5 0.0000000000000000e+00 2.7609531607197091e+01 1.0810432455920640e+01 1.3846175806519783e+01 0 1 0
54 5 5 0.0000000000000000e+00 3.0548568902005808e+01 9.4458543804784192e+00 1.9484329019914878e+01 0 0 0
53 5 5 0.0000000000000000e+00 3.4034206640109382e+01 9.0670790340288789e+00 1.6224446296083507e+01 0 0 0
1879 157 5 0.0000000000000000e+00 3.4071710617637464e+01 1.4151217050696594e+01 1.5552913332149355e+01 0 0 0
2597 217 5 0.0000000000000000e+00 4.2594538436761106e+01 8.2935905635822120e+00 1.6833168538769364e+01 0 0 0
270 23 5 0.0000000000000000e+00 3.8431332874863138e+01 1.1586076969657665e+01 1.9907039585555012e+01 0 0 0
269 23 5 0.0000000000000000e+00 3.9241980024759414e+01 1.1893702019278027e+01 1.5974341336543462e+01 0 0 0
2598 217 5 0.0000000000000000e+00 4.5854241099676678e+01 1.1653550206805496e+01 2.0076337243207394e+01 0 0 0
2602 217 5 0.0000000000000000e+00 4.7808045837010539e+01 9.5028556322146223e+00 1.5060559979562331e+01 0 0 0
2603 217 5 0.0000000000000000e+00 5.0557131716852908e+01 1.0499816254524211e+01 1.8274525277146985e+01 0 0 0
268 23 4 0.0000000000000000e+00 4.5174669296133139e+01 1.3192630882851271e+01 1.5828389871865467e+01 0 0 0
1253 105 5 0.0000000000000000e+00 5.6616356373510371e+01 8.3379792059043680e+00 1.9689548143740531e+01 0 0 0
561 47 5 0.0000000000000000e+00 5.4556965720714992e+01 1.2342511672426856e+01 1.6516316305257988e+01 0 0 0
1324 111 4 0.0000000000000000e+00 5.8756932926390625e+01 1.3241871679872373e+01 1.4104016540037399e+01 0 0 0
562 47 5 0.0000000000000000e+00 5.7223315160332518e+01 1.4349777994422801e+01 1.8997801710607291e+01 0 0 0
1329 111 5 0.0000000000000000e+00 6.0500000138060159e+01 1.1013237552940804e+01 1.8234903969311809e+01 0 0 0
10451 6161 1 0.0000000000000000e+00 6.4772978254241011e+01 1.4706996194270216e+01 1.7283063514921629e+01 1 0 1
3724 311 4 0.0000000000000000e+00 6.7661440514695784e+01 1.0503284929443419e+01 1.6786271599996464e+01 0 0 0
3723 311 4 0.0000000000000000e+00 6.8321528145932902e+01 8.1387196787797915e+00 1.5854938883700047e+01 0 0 0
3300 275 5 0.0000000000000000e+00 7.4551264560881066e+01 7.9308959403303678e+00 1.9540490636021765e+01 0 0 0
3729 311 5 0.0000000000000000e+00 7.0414066799483962e+01 1.4002292399369233e+01 1.7697151744972341e+01 0 0 0
11692 7402 1 0.0000000000000000e+00 7.3776142116671025e+01 1.1220369615888092e+01 1.5914613380113028e+01 0 1 1
1977 165 5 0.0000000000000000e+00 7.5590135690770452e+01 1.4308015489621717e+01 1.8689941141147486e+01 0 0 0
10222 5932 1 0.0000000000000000e+00 7.9955016120388137e+01 1.1526578119039133e+01 1.6344174728217009e+01 0 1 1
3297 275 5 0.0000000000000000e+00 8.3205003417161677e+01 8.4774985346601408e+00 1.7764373034825368e+01 0 0 0
1205 101 5 0.0000000000000000e+00 8.8018748279263932e+01 1.1976899708561682e+01 1.8970115178086420e+01 0 0 0
3675 307 4 0.0000000000000000e+00 8.8339666821442478e+01 8.2783110131906756e+00 1.5088334980699518e+01 0 0 0
1204 101 4 0.0000000000000000e+00 8.3935671598141482e+01 1.5048896302698560e+01 1.7157312680774247e+01 0 0 0
1203 101 4 0.0000000000000000e+00 8.5376287292632881e+01 1.3331703984984603e+01 1.5090175591513008e+01 0 0 0
11157 6867 6 0.0000000000000000e+00 9.0435485050294403e+01 1.2621152236412787e+01 1.3832603489134836e+01 0 1 1
3388 283 4 0.0000000000000000e+00 9.3942201731298880e+01 1.2744398885552876e+01 1.7113846899255343e+01 0 0 0
3387 283 4 0.0000000000000000e+00 9.6253287802366870e+01 1.2729600529670622e+01 1.6424310573564384e+01 0 0 0
4011 335 4 0.0000000000000000e+00 1.0188298148048774e+02 1.1561724658934512e+01 1.7140499379433265e+01 0 0 0
4012 335 4 0.0000000000000000e+00 1.0328447513916900e+02 1.2965413939094336e+01 1.9212508694787484e+01 0 0 0
4009 335 2 1.0000000000000000e+00 9.8017137709320295e+01 8.7896275999493412e+00 1.4002879735041850e+01 0 0 0
4010 335 3 -1.0000000000000000e+00 1.0265041857327523e+02 1.0229412398227643e+01 1.3388179559858244e+01 0 0 0
3797 317 5 0.0000000000000000e+00 -5.1488203617190278e+00 1.6937693016755670e+01 1.9844967006764158e+01 1 0 0
3801 317 5 0.0000000000000000e+00 -1.3841198525347507e+00 1.8990249938872221e+01 1.7780660676257739e+01 1 0 0
3796 317 4 0.0000000000000000e+00 -5.7679914425978547e+00 1.7976947232530389e+01 1.5113381036049217e+01 1 0 0
3634 303 5 0.0000000000000000e+00 3.9963232947549261e+00 1.7319622616693188e+01 1.8824256935887377e+01 1 0 0
3633 303 5 0.0000000000000000e+00 4.9198011980128786e+00 1.5515679041808770e+01 1.5122810273429293e+01 1 0 0
3076 257 4 0.0000000000000000e+00 5.6118638543566073e+00 2.1994669993618597e+01 1.5845629540866350e+01 1 0 0
4185 349 5 0.0000000000000000e+00 9.8668926094710798e+00 1.7611338763992656e+01 1.7016153698601890e+01 1 0 0
3075 257 4 0.0000000000000000e+00 8.8820569522020492e+00 2.1472462308005166e+01 1.3719739766113873e+01 1 0 0
4378 365 5 0.0000000000000000e+00 1.3137810877319493e+01 1.5321748761801286e+01 1.9207212340023581e+01 1 0 0
3775 315 5 0.0000000000000000e+00 1.4358579855414813e+01 1.9950629035687189e+01 1.9688029739039344e+01 1 0 0
3774 315 5 0.0000000000000000e+00 1.7952809685726574e+01 1.6357390323416979e+01 1.7097630164623052e+01 1 0 0
4182 349 5 0.0000000000000000e+00 1.9524378799363465e+01 2.1199150232807945e+01 2.0323139160353570e+01 1 0 0
4181 349 5 0.0000000000000000e+00 1.7419342519749151e+01 2.0659063177768417e+01 1.6128751002579456e+01 1 0 0
1881 157 5 0.0000000000000000e+00 2.2498550898064995e+01 1.7359831132196685e+01 1.5310332307000710e+01 0 0 0
820 69 4 0.0000000000000000e+00 2.1822035718543788e+01 2.1983060255535893e+01 1.3394098174201432e+01 0 0 0
826 69 5 0.0000000000000000e+00 2.6436828705095412e+01 2.2520106194248154e+01 2.0251408699748151e+01 0 0 0
1877 157 5 0.0000000000000000e+00 2.8368302101554924e+01 1.9801398591555884e+01 1.4387907546845698e+01 0 0 0
1882 157 5 0.0000000000000000e+00 2.4283556774678292e+01 1.8294129399380406e+01 2.0178334571011838e+01 0 0 0
1878 157 5 0.0000000000000000e+00 3.1903733310469526e+01 1.7870374467936770e+01 1.6977255154386309e+01 0 0 0
1807 151 5 0.0000000000000000e+00 3.6465823070520521e+01 1.6298944361289227e+01 1.9782193872561432e+01 0 0 0
4205 351 5 0.0000000000000000e+00 3.3812853958777012e+01 2.1767284124082835e+01 1.9304089428972095e+01 1 0 0
1806 151 5 0.0000000000000000e+00 3.6874605472205815e+01 1.8773137593266878e+01 1.6580810593703177e+01 0 0 0
4203 351 4 0.0000000000000000e+00 3.2174132512261188e+01 2.2233899212402097e+01 1.3557928868935008e+01 1 0 0
1805 151 5 0.0000000000000000e+00 3.7441337043141722e+01 2.2274948425460614e+01 1.4967629746543865e+01 0 0 0
273 23 5 0.0000000000000000e+00 4.3350199860303135e+01 1.6060125020766577e+01 1.8124227772998978e+01 0 0 0
1233 103 5 0.0000000000000000e+00 4.2533555771487450e+01 2.1601137723932265e+01 1.6221266328851900e+01 0 0 0
274 23 5 0.0000000000000000e+00 4.1369079837374962e+01 1.8868020460412321e+01 2.0117838544452773e+01 0 0 0
1229 103 5 0.0000000000000000e+00 4.7268883790824951e+01 1.9577862991044025e+01 1.6665348673380080e+01 0 0 0
1230 103 5 0.0000000000000000e+00 4.9640125092693864e+01 2.1369395810556885e+01 1.9588708130412602e+01 0 0 0
557 47 5 0.0000000000000000e+00 5.0645425566327205e+01 1.5360442373631999e+01 1.7218153975142688e+01 0 0 0
4469 373 5 0.0000000000000000e+00 5.4556463162561805e+01 2.1497764966730536e+01 1.7568767840486689e+01 1 0 0
4838 548 1 0.0000000000000000e+00 5.8477491248278049e+01 2.2374242088823241e+01 1.5200703389935367e+01 -2 -2 1
4467 373 4 0.0000000000000000e+00 5.5345172680434068e+01 1.7956499828741471e+01 1.4213811961882847e+01 1 0 0
1323 111 4 0.0000000000000000e+00 6.0908426604831376e+01 1.5767101655761513e+01 1.3869433868804899e+01 0 0 0
1325 111 5 0.0000000000000000e+00 6.0629586615215416e+01 1.7823303250216128e+01 1.7783023699612119e+01 0 0 0
1569 131 5 0.0000000000000000e+00 6.6942781753547749e+01 1.8781511275912344e+01 1.9035021861906749e+01 0 0 0
916 77 4 0.0000000000000000e+00 6.4310210229620040e+01 2.2287001466338126e+01 1.5052609959421542e+01 0 0 0
1565 131 5 0.0000000000000000e+00 7.2287919065124370e+01 1.8647317719954348e+01 1.8763085834028043e+01 0 0 0
7865 3575 1 0.0000000000000000e+00 6.9926684292196583e+01 2.2288452929354406e+01 1.3859605530257280e+01 1 1 1
1564 131 4 0.0000000000000000e+00 6.7953990808111314e+01 1.7191313139952737e+01 1.4436765741171186e+01 0 0 0
1563 131 4 0.0000000000000000e+00 7.1884774497959754e+01 1.7142968203561637e+01 1.4359167123556213e+01 0 0 0
9530 5240 1 0.0000000000000000e+00 7.4957607350980695e+01 2.2673041885579650e+01 1.5394109619313864e+01 0 0 1
1972 165 4 0.0000000000000000e+00 7.7540334331311158e+01 1.8610071999230897e+01 1.6539564863689819e+01 0 0 0
1973 165 5 0.0000000000000000e+00 8.0261084433040068e+01 1.6485852566239817e+01 1.9885747139528910e+01 0 0 0
1971 165 4 0.0000000000000000e+00 8.0660179936411069e+01 1.9789526124783563e+01 1.5776951887309648e+01 0 0 0
4305 359 5 0.0000000000000000e+00 7.7972071735406217e+01 2.1248769930521085e+01 2.0480354544725945e+01 1 0 0
3369 281 5 0.0000000000000000e+00 8.4528106541393825e+01 2.0076631536858788e+01 1.9142457911596530e+01 0 0 0
3363 281 4 0.0000000000000000e+00 8.7801737111192253e+01 1.7808352351787221e+01 1.3510806894676950e+01 0 0 0
3364 281 4 0.0000000000000000e+00 8.5029451207660358e+01 1.9092389702423514e+01 1.3988676237743331e+01 0 0 0
3365 281 5 0.0000000000000000e+00 8.8423925301882264e+01 1.7874193978676779e+01 1.8390969871521683e+01 0 0 0
3101 259 5 0.0000000000000000e+00 8.8481344650239620e+01 2.2500044812273718e+01 1.9281345138672570e+01 0 0 0
3100 259 4 0.0000000000000000e+00 9.3721497838198914e+01 1.9961822145729325e+01 1.7982458313804006e+01 0 0 0
3389 283 5 0.0000000000000000e+00 9.6948492621052253e+01 1.6582499570353537e+01 1.9137450946487949e+01 0 0 0
2380 199 4 0.0000000000000000e+00 9.6939419752813549e+01 2.1397633256568039e+01 1.3911737458635896e+01 0 0 0
3099 259 4 0.0000000000000000e+00 9.0693724274051945e+01 2.1267757051143349e+01 1.5596169637284737e+01 0 0 0
3385 283 2 1.0000000000000000e+00 9.3750922962380201e+01 1.6250897440500196e+01 1.3639091895446970e+01 0 0 0
2385 199 5 0.0000000000000000e+00 9.9800299311993456e+01 1.9958239342015045e+01 1.6416510200622543e+01 0 0 0
2386 199 5 0.0000000000000000e+00 1.0345481434810725e+02 2.1036222683473927e+01 1.7977194808079517e+01 0 0 0
3795 317 4 0.0000000000000000e+00 1.0314469908551973e+02 1.6338398114207695e+01 1.5769514754243113e+01 0 0 0
2697 225 5 0.0000000000000000e+00 -2.8392156837811804e+00 2.7456781701296745e+01 1.6296366254905475e+01 1 0 0
2668 223 4 0.0000000000000000e+00 -6.8043644290344281e+00 2.9060775610493280e+01 1.8931051039027722e+01 1 0 0
2387 199 5 0.0000000000000000e+00 -4.1236995595166865e+00 2.3354805125049896e+01 1.7493181840212738e+01 1 0 0
2388 199 5 0.0000000000000000e+00 -2.0552189336120157e+00 2.3944619280830050e+01 2.0186351949772369e+01 1 0 0
2698 225 5 0.0000000000000000e+00 -8.8889957848695023e-02 2.8503921932605799e+01 1.9581944687029029e+01 1 0 0
3005 251 5 0.0000000000000000e+00 8.6954317255725999e-01 2.3777246307665443e+01 1.6586858937065585e+01 1 0 0
3006 251 5 0.0000000000000000e+00 3.6883941014737385e+00 2.3237053938867554e+01 1.9620712052623599e+01 1 0 0
3465 289 5 0.0000000000000000e+00 5.3242544628532835e+00 2.7661273499218044e+01 1.5772874466662524e+01 1 0 0
3466 289 5 0.0000000000000000e+00 5.3380870879651772e+00 2.7693089588373862e+01 1.9338162058751450e+01 1 0 0
3081 257 5 0.0000000000000000e+00 8.5202753511288396e+00 2.3446601234665930e+01 1.8022514368738438e+01 1 0 0
3077 257 5 0.0000000000000000e+00 1.2837021106117358e+01 2.4325238974723533e+01 1.5642880600633180e+01 1 0 0
3462 289 5 0.0000000000000000e+00 1.2317971100783074e+01 2.8005474231791961e+01 1.9953018341777348e+01 1 0 0
3461 289 5 0.0000000000000000e+00 9.9009932088637900e+00 2.8768691986317474e+01 1.6401847905004885e+01 1 0 0
3776 315 5 0.0000000000000000e+00 1.5162479919490893e+01 2.3228480751126451e+01 2.0423184954705444e+01 1 0 0
3078 257 5 0.0000000000000000e+00 1.5885924479114548e+01 2.7286493085370587e+01 1.7185799937228140e+01 1 0 0
821 69 5 0.0000000000000000e+00 2.0022200866183720e+01 2.5285366594582573e+01 1.6671777529626723e+01 0 0 0
3079 257 5 0.0000000000000000e+00 1.7425394728669009e+01 2.8902137389280568e+01 2.0106044590941785e+01 1 0 0
4041 337 5 0.0000000000000000e+00 2.3966969796071798e+01 2.8034020900583414e+01 1.8093436875465915e+01 1 0 0
825 69 5 0.0000000000000000e+00 2.4357305859775334e+01 2.3621100629414332e+01 1.6437328162127066e+01 0 0 0
4209 351 5 0.0000000000000000e+00 2.9905442571419648e+01 2.5811912200241359e+01 2.0251010642257711e+01 1 0 0
8335 4045 1 0.0000000000000000e+00 2.9039228894143463e+01 2.9369358526810736e+01 1.5660703589685321e+01 0 0 1
3753 313 5 0.0000000000000000e+00 3.5098179914110496e+01 2.5985964916283667e+01 1.7530606344979020e+01 1 0 0
4204 351 4 0.0000000000000000e+00 3.0917476903644680e+01 2.4410198132179136e+01 1.5667846454564652e+01 1 0 0
1804 151 4 0.0000000000000000e+00 3.4702012280408880e+01 2.8543493487448242e+01 1.3436794093251066e+01 0 0 0
1234 103 5 0.0000000000000000e+00 3.9959542184443045e+01 2.4041330855866981e+01 1.9003327505327224e+01 0 0 0
226 19 5 0.0000000000000000e+00 4.1940530315221309e+01 2.8028194226674604e+01 1.9093264767300024e+01 0 0 0
3748 313 4 0.0000000000000000e+00 3.9348142051951072e+01 2.7689624147277542e+01 1.4419913055061530e+01 1 0 0
846 71 5 0.0000000000000000e+00 4.5366486810949134e+01 2.4359200730710068e+01 1.9816662837022836e+01 0 0 0
4474 373 5 0.0000000000000000e+00 5.0733132376568719e+01 2.5697760039425596e+01 1.8233399323684189e+01 1 0 0
4475 373 5 0.0000000000000000e+00 4.8707309529239119e+01 2.8939991515988407e+01 1.9369525349281421e+01 1 0 0
4473 373 5 0.0000000000000000e+00 5.1177888494933960e+01 2.3332706429621108e+01 1.4254502006386117e+01 1 0 0
845 71 5 0.0000000000000000e+00 4.5219385879897857e+01 2.5758246927499847e+01 1.6264046517626614e+01 0 0 0
844 71 4 0.0000000000000000e+00 4.8708469238359008e+01 2.9855672705637009e+01 1.4649312463521056e+01 0 0 0
851 71 5 0.0000000000000000e+00 5.9374381055443763e+01 2.3023927343404409e+01 2.0164786764080887e+01 0 0 0
850 71 5 0.0000000000000000e+00 5.6566988592570034e+01 2.6079275359065232e+01 1.7645601456835212e+01 0 0 0
849 71 5 0.0000000000000000e+00 5.3457329233069458e+01 2.8557184759358115e+01 1.4834321675147351e+01 0 0 0
921 77 5 0.0000000000000000e+00 6.6196315202641955e+01 2.4437116846671504e+01 1.7702686316656511e+01 0 0 0
917 77 5 0.0000000000000000e+00 6.1600726540039268e+01 2.7190551424527914e+01 1.7626812742670452e+01 0 0 0
918 77 5 0.0000000000000000e+00 6.3970107585626380e+01 3.0127852558114757e+01 1.9907529963899790e+01 0 0 0
915 77 4 0.0000000000000000e+00 6.2839068705160486e+01 2.4710913494894939e+01 1.3814275620936243e+01 0 0 0
11807 7517 1 0.0000000000000000e+00 6.7029851975823277e+01 2.7683719939494296e+01 1.3379158574536875e+01 0 2 1
892 75 4 0.0000000000000000e+00 7.1610579194497376e+01 3.0087194384750390e+01 1.6437553809618361e+01 0 0 0
893 75 5 0.0000000000000000e+00 7.0769137868215552e+01 2.4357726179076192e+01 1.8866312085640594e+01 0 0 0
897 75 5 0.0000000000000000e+00 6.8979906220551442e+01 2.9933808836510490e+01 1.9448961932702137e+01 0 0 0
4301 359 5 0.0000000000000000e+00 7.3707354660922135e+01 2.8021044233961092e+01 2.0337733848025678e+01 1 0 0