LAMMPS (30 Nov 2016)
# LJ particles
variable        T0 equal 300.0
variable        TL equal 250.0
variable        TH equal 350.0

units           real
atom_style      full
pair_style      lj/cut 5.0

read_data       "lj-stg2.data"
  orthogonal box = (1.06874 1.06874 1.06874) to (23.9313 23.9313 23.9313)
  1 by 2 by 2 MPI processor grid
  reading atoms ...
  500 atoms
  reading velocities ...
  500 velocities
  0 = max # of 1-2 neighbors
  0 = max # of 1-3 neighbors
  0 = max # of 1-4 neighbors
  1 = max # of special neighbors

thermo          10
thermo_style    custom step temp pe etotal press

timestep        1.0

fix             fxnvt all nvt temp ${T0} ${T0} 1000.0
fix             fxnvt all nvt temp 300 ${T0} 1000.0
fix             fxnvt all nvt temp 300 300 1000.0
fix             fxSTMD all stmd 100000 sqrt 1.01 ${TL} ${TH} -3500 -2250 2 10000 100000 ${T0} 1
fix             fxSTMD all stmd 100000 sqrt 1.01 250 ${TH} -3500 -2250 2 10000 100000 ${T0} 1
fix             fxSTMD all stmd 100000 sqrt 1.01 250 350 -3500 -2250 2 10000 100000 ${T0} 1
fix             fxSTMD all stmd 100000 sqrt 1.01 250 350 -3500 -2250 2 10000 100000 300 1

run             100000
STMD: STAGE= 2 #bins= 626  binsize 2
Neighbor list info ...
  1 neighbor list requests
  update every 1 steps, delay 10 steps, check yes
  max neighbors/atom: 2000, page size: 100000
  master list distance cutoff = 7
  ghost atom cutoff = 7
  binsize = 3.5 -> bins = 7 7 7
Memory usage per processor = 5.375 Mbytes
Step Temp PotEng TotEng Press 
       0    321.87154     -2928.96   -2450.2005    9659.4189 
      10    325.56369   -2934.1253    -2449.874    9534.4106 
      20    326.87303   -2936.5178    -2450.319    9480.7319 
      30    324.14335   -2934.1803   -2452.0416    9562.7161 
      40    320.03873   -2928.3489   -2452.3155    9698.4957 
      50    316.64423   -2924.7599   -2453.7756    9801.2449 
      60    314.46125   -2920.4093    -2452.672    9888.2874 
      70    312.59205   -2917.4253   -2452.4683    9959.0302 
      80    311.26656   -2914.6215   -2451.6361    10013.613 
      90    311.89358   -2916.0505   -2452.1324    9982.1674 
     100    313.39987   -2918.2381   -2452.0796    9922.3224 
     110    313.12231   -2918.5252   -2452.7795     9919.697 
     120     311.3163    -2915.875   -2452.8156    9981.2394 
     130    310.33947   -2914.0098   -2452.4034    10017.882 
     140    310.58047   -2914.4276   -2452.4627    10007.443 
     150    312.13066   -2914.8922   -2450.6215     9971.517 
     160     314.3935   -2919.1421   -2451.5056    9876.9319 
     170    314.96435   -2922.4668   -2453.9812     9821.705 
     180    313.68285   -2921.9542   -2455.3747    9846.8256 
     190    311.31634   -2919.4919   -2456.4325    9921.3218 
     200    308.54756   -2914.6309   -2455.6898    10030.775 
     210    306.84744   -2911.4598   -2455.0475    10103.081 
     220    304.96664   -2908.9876   -2455.3729    10173.251 
     230    301.88308   -2905.5335   -2456.5053    10277.482 
     240    299.89342   -2901.9412   -2455.8725    10363.974 
     250    298.57227   -2900.0224   -2455.9188    10424.823 
     260    298.49379   -2898.6892   -2454.7023    10454.431 
     270    298.74865   -2898.6343   -2454.2683    10460.733 
     280    298.37008   -2897.6105   -2453.8076    10487.798 
     290    296.75374   -2894.9196   -2453.5209      10562.6 
     300    293.90223   -2890.5897   -2453.4324    10682.599 
     310    290.64491    -2885.555   -2453.2427    10819.481 
     320    288.04718   -2881.4933    -2453.045    10931.365 
     330    286.10902   -2878.0377   -2452.4722    11022.484 
     340    285.81159   -2876.9898   -2451.8667     11049.23 
     350    287.58463   -2879.4491   -2451.6888    10990.917 
     360    290.48565   -2885.4167   -2453.3413    10868.555 
     370    293.74696   -2891.2105   -2454.2842    10738.602 
     380     296.4988   -2894.6238   -2453.6043    10646.405 
     390    298.33585   -2896.1617   -2452.4098    10590.819 
     400    299.34675   -2897.9622   -2452.7066     10550.82 
     410    300.76207   -2899.9105   -2452.5497    10503.597 
     420    303.04347   -2902.5644   -2451.8102    10426.191 
     430    305.11384     -2907.27   -2453.4363    10324.563 
     440    305.87803   -2908.6933   -2453.7229    10281.143 
     450    304.73441   -2906.1143   -2452.8449    10326.366 
     460    303.49872   -2904.7026   -2453.2713    10357.321 
     470    303.62001   -2906.4015   -2454.7897    10324.159 
     480    305.26962    -2907.824   -2453.7586    10261.568 
     490    307.30779   -2910.7017   -2453.6047    10173.909 
     500    309.67566   -2915.4293   -2454.8103     10061.11 
     510    312.17602   -2917.3311   -2452.9929    9976.1328 
     520     312.7984   -2918.7389   -2453.4749    9927.6534 
     530     309.9997   -2915.2411     -2454.14     10003.83 
     540    304.99813   -2908.6206    -2454.959    10154.664 
     550    298.78472   -2899.7575   -2455.3378    10358.601 
     560    292.62613   -2889.9287   -2454.6695    10585.318 
     570    286.59295   -2879.9436   -2453.6583    10819.829 
     580    282.06761   -2872.2013   -2452.6471     10999.68 
     590    279.56943   -2868.2999   -2452.4616    11102.359 
     600    280.30045   -2868.6457     -2451.72     11090.37 
     610    283.54085   -2873.2806    -2451.535    10972.588 
     620    287.62912   -2879.8112   -2451.9847    10818.468 
     630     291.3718   -2884.4745   -2451.0811    10686.552 
     640    294.92985   -2889.9871   -2451.3013    10552.192 
     650    297.86165   -2893.3712   -2450.3246    10457.834 
     660    299.79119   -2896.3851   -2450.4684    10392.785 
     670    299.45208   -2896.3198   -2450.9076    10416.226 
     680     296.5496   -2892.8363   -2451.7412    10541.218 
     690     291.5934   -2884.1969   -2450.4738    10772.549 
     700    286.60384   -2877.6569   -2451.3554    10982.902 
     710    283.95286   -2873.4879   -2451.1296    11112.909 
     720    285.00394   -2874.7761   -2450.8543    11102.916 
     730    289.75728   -2882.2375   -2451.2455    10938.255 
     740     295.7347   -2891.5884   -2451.7054     10710.43 
     750     301.9109   -2900.8012   -2451.7316    10479.045 
     760    308.69954   -2912.1704   -2453.0032    10207.031 
     770    316.02824   -2923.0629   -2452.9948    9929.3054 
     780    322.43388   -2932.8393   -2453.2433    9685.9295 
     790    326.19671   -2939.2891   -2454.0962    9528.2275 
     800    326.37194   -2941.0847   -2455.6312    9495.7821 
     810    324.11232   -2937.7536   -2455.6611    9571.8758 
     820     319.7312    -2932.385   -2456.8091    9716.5652 
     830    316.08352   -2927.6297   -2457.4794    9839.7157 
     840    313.39058    -2922.806   -2456.6613    9945.2276 
     850    312.53215   -2921.4962   -2456.6283    9974.1649 
     860      313.111   -2923.3749    -2457.646    9936.5942 
     870    315.75554   -2928.7566   -2459.0941    9813.0104 
     880    319.20085    -2933.258   -2458.4709    9680.5969 
     890    322.14731   -2936.0074   -2456.8377     9562.577 
     900    322.06717   -2939.2298   -2460.1793    9496.2805 
     910     319.6239    -2934.017   -2458.6006    9577.3402 
     920    316.16167   -2926.9475   -2456.6809    9701.6913 
     930    312.83852   -2921.9027   -2456.5792    9809.5878 
     940    309.38321   -2916.3871   -2456.2031    9938.0047 
     950    306.24403   -2912.8578   -2457.3431    10031.396 
     960    304.87185    -2913.574   -2460.1003    10042.895 
     970    305.74473   -2914.8524   -2460.0803    10008.252 
     980    309.19871    -2919.194   -2459.2843    9895.0602 
     990     311.4547    -2922.938   -2459.6728    9808.3445 
    1000    311.73633   -2922.9955   -2459.3113    9808.1306 
    1010    309.40618    -2920.391   -2460.1728    9888.5935 
    1020    303.74418    -2913.345   -2461.5486    10081.023 
    1030    297.49143   -2902.1667   -2459.6708    10334.942 
    1040    292.71059   -2896.1903   -2460.8055    10498.786 
    1050    290.06171   -2890.3776   -2458.9328    10624.028 
    1060    288.45175   -2888.5288   -2459.4787    10680.803 
    1070    287.66514   -2886.3885   -2458.5084    10716.734 
    1080    289.18198    -2888.042   -2457.9057      10653.5 
    1090    292.24999     -2892.71   -2458.0103     10516.17 
    1100    295.79582   -2899.6584   -2459.6845    10345.392 
    1110    299.52533   -2905.1209   -2459.5997     10185.01 
    1120    302.07526   -2908.2858   -2458.9718    10065.997 
    1130    303.19009   -2911.1057   -2460.1334    9979.6192 
    1140    304.23467    -2912.963    -2460.437    9913.6856 
    1150    306.01202   -2913.8889   -2458.7192    9855.0512 
    1160    308.69481   -2916.8582    -2457.698    9770.8683 
    1170    310.05814   -2919.7157   -2458.5277    9712.2471 
    1180    307.99777    -2916.754   -2458.6307     9798.954 
    1190    304.25401   -2912.1509   -2459.5961    9934.8702 
    1200    299.33333   -2906.7186   -2461.4829    10117.221 
    1210    293.16491   -2899.1915    -2463.131    10341.462 
    1220    288.70674   -2894.1667   -2464.7373    10510.578 
    1230    286.37643   -2890.9044   -2464.9412    10620.866 
    1240    286.36205   -2890.5027   -2464.5609    10650.144 
    1250    287.89518   -2892.5421   -2464.3198    10617.743 
    1260      290.332   -2896.1332   -2464.2864    10540.242 
    1270     293.4739   -2900.6941   -2464.1739      10436.5 
    1280    297.67886   -2907.4875   -2464.7128     10277.25 
    1290    300.70119    -2911.918   -2464.6478    10156.749 
    1300    302.52964   -2916.1417   -2466.1518     10063.59 
    1310    304.41448   -2917.4726   -2464.6791    9995.2336 
    1320    305.53347   -2919.9664   -2465.5085    9923.0892 
    1330    305.32319   -2918.8818   -2464.7367    9922.4683 
    1340    304.76112   -2919.0984   -2465.7893    9922.3514 
    1350    304.55196   -2919.0753   -2466.0774    9925.7885 
    1360    304.65738   -2919.0278    -2465.873    9928.3533 
    1370    304.60922   -2917.5618   -2464.4787    9952.1142 
    1380    303.83618   -2915.9185   -2463.9852     9993.039 
    1390    303.04911   -2916.1618   -2465.3992     10009.44 
    1400    302.37366   -2916.2939    -2466.536    10020.616 
    1410    301.68511   -2914.8383   -2466.1045     10046.28 
    1420    300.44685   -2913.6859    -2466.794    10080.558 
    1430    297.48451   -2908.4781   -2465.9924    10197.726 
    1440     292.9062    -2901.425   -2465.7492    10363.564 
    1450    288.70282   -2895.8456    -2466.422    10499.051 
    1460    285.65319   -2891.0208   -2466.1334    10610.115 
    1470    283.68552   -2888.0312   -2466.0705     10682.39 
    1480    282.97473   -2886.0078   -2465.1043     10718.52 
    1490    284.44436   -2885.6375   -2462.5481    10688.812 
    1500    286.76548   -2890.6834   -2464.1415    10576.015 
    1510    288.88267   -2894.7516   -2465.0605    10477.508 
    1520    291.44336    -2899.785   -2466.2851    10359.949 
    1530    296.08309   -2906.6926   -2466.2915    10178.416 
    1540    301.03508   -2913.4989   -2465.7321    9983.6804 
    1550    305.63814   -2921.0483   -2466.4347    9795.9635 
    1560    309.19579   -2925.5879   -2465.6826    9661.0699 
    1570    310.31462   -2927.5588   -2465.9893    9587.9063 
    1580    308.69764    -2924.541   -2465.3766    9621.5597 
    1590    306.91591   -2923.3122    -2466.798    9637.2987 
    1600    306.88523    -2923.357   -2466.8885    9612.2416 
    1610    308.47043   -2925.1247   -2466.2983    9542.2237 
    1620    310.48259   -2928.8558   -2467.0365    9438.6896 
    1630    313.00863   -2932.6755   -2467.0989     9329.363 
    1640    316.57622   -2938.1877   -2467.3046    9177.9783 
    1650    321.20246   -2945.2625   -2467.4982     9008.404 
    1660    324.93344    -2952.725   -2469.4111    8842.7863 
    1670    327.53429   -2956.3962   -2469.2137    8750.7235 
    1680    327.43544   -2955.2557   -2468.2203    8765.1879 
    1690    324.39284   -2952.3804   -2469.8706    8853.6101 
    1700    319.88758    -2944.781   -2468.9724    9029.9107 
    1710    314.42321   -2936.4788   -2468.7981    9220.2913 
    1720    310.21969   -2932.0521   -2470.6238    9343.7186 
    1730    310.11316   -2932.7687   -2471.4989    9325.8328 
    1740      312.948   -2938.5699   -2473.0834     9190.834 
    1750    316.70695   -2945.0438   -2473.9662     9040.002 
    1760    317.87388   -2948.5092   -2475.6959    8960.2266 
    1770     314.7616   -2944.0168   -2475.8327    9075.1243 
    1780     309.1609   -2935.6608   -2475.8074    9276.2615 
    1790     303.3097    -2928.905   -2477.7548    9476.6001 
    1800    298.47916   -2921.4438   -2477.4787    9671.5894 
    1810     294.0377   -2916.3847   -2479.0259    9838.0717 
    1820    289.72533   -2911.3456   -2480.4011      9999.53 
    1830    285.35328   -2904.0824    -2479.641    10183.749 
    1840    283.04705   -2901.0294   -2480.0184    10265.976 
    1850    285.15766   -2905.4376   -2481.2872    10171.273 
    1860    291.21323   -2916.0869   -2482.9293    9925.1954 
    1870    299.76464   -2929.2741   -2483.3969    9611.5265 
    1880     307.5182   -2940.4352   -2483.0252    9330.8936 
    1890    312.14974   -2946.3171    -2482.018    9171.3067 
    1900    309.66331   -2943.3015   -2482.7008    9243.5682 
    1910    302.00342   -2932.2244   -2483.0172    9501.7932 
    1920    292.26497   -2917.9508   -2483.2288    9833.5374 
    1930    283.83772   -2903.7175   -2481.5304    10152.029 
    1940    278.73913   -2896.3068   -2481.7034    10324.447 
    1950    277.64228   -2895.3436   -2482.3717    10345.742 
    1960    279.37826   -2899.2233   -2483.6693    10250.731 
    1970    284.11149   -2906.4254   -2483.8311    10053.493 
    1980    289.21461   -2913.7973   -2483.6125    9832.5273 
    1990    294.04352   -2920.8427   -2483.4752     9628.761 
    2000    299.01852   -2928.3458   -2483.5784    9427.2388 
    2010     304.3555   -2935.7638   -2483.0581    9226.0431 
    2020     309.0419    -2943.306   -2483.6296    9041.6862 
    2030      313.463   -2950.0212   -2483.7688    8878.9506 
    2040    316.47924    -2955.465   -2484.7261    8769.1852 
    2050    317.06187    -2956.908   -2485.3025    8750.7709 
    2060    315.56554   -2957.2967   -2487.9169      8779.41 
    2070     312.2797   -2954.2547   -2489.7623    8877.2791 
    2080    307.08963    -2948.357   -2491.5844    9039.0175 
    2090    301.43927   -2939.8127   -2491.4446    9239.7661 
    2100    297.34097   -2935.0634   -2492.7912    9372.1509 
    2110    294.71732   -2932.9247    -2494.555    9439.4665 
    2120    295.64547   -2932.7822    -2493.032    9413.5004 
    2130    299.00156   -2937.2513   -2492.5091    9281.8684 
    2140    302.23118    -2941.164    -2491.618    9152.1786 
    2150    305.50481   -2945.8853     -2491.47    9006.2787 
    2160    305.56366   -2945.7404   -2491.2376    8971.2273 
    2170    303.23982   -2941.9064   -2490.8601    9023.6101 
    2180    301.31215   -2938.4434   -2490.2645    9068.3955 
    2190    298.60007   -2936.2789   -2492.1339    9122.2733 
    2200    294.87608   -2930.9719   -2492.3661    9231.3835 
    2210    292.11676   -2928.0776   -2493.5761    9296.3216 
    2220     290.5825   -2927.5873   -2495.3678    9313.3076 
    2230    290.98567   -2928.8566   -2496.0374    9277.3622 
    2240    294.32435   -2933.8911    -2496.106    9154.4184 
    2250    299.14879   -2942.0086   -2497.0474    8969.2387 
    2260    304.40661    -2949.597   -2496.8152    8784.6647 
    2270    308.35901   -2954.5955   -2495.9348    8656.7279 
    2280    310.63202   -2959.0921   -2497.0505    8567.7169 
    2290    311.79788   -2961.5836   -2497.8079    8519.4611 
    2300    311.60445   -2961.8384   -2498.3504    8519.0739 
    2310    310.11103   -2960.0237    -2498.757    8563.8854 
    2320    307.17531    -2956.569    -2499.669    8649.1295 
    2330    303.55053   -2949.9778   -2498.4694    8780.2299 
    2340    299.46876   -2944.5532   -2499.1161    8920.8045 
    2350     294.4422   -2937.4106   -2499.4501    9085.1449 
    2360    290.08221   -2929.2225   -2497.7472    9251.8961 
    2370    287.42301   -2925.0198   -2497.4998    9344.6529 
    2380    287.12011   -2924.3788   -2497.3094    9352.7428 
    2390    289.07798   -2927.7785   -2497.7969    9271.6333 
    2400    291.05557   -2931.5935   -2498.6704    9186.0954 
    2410     292.7846   -2935.4005   -2499.9056    9101.7043 
    2420    293.29938   -2934.9909   -2498.7303    9083.9316 
    2430    292.84871   -2934.9079   -2499.3177     9080.499 
    2440    291.44095   -2935.2292   -2501.7329    9090.6009 
    2450    290.14755   -2932.3917   -2500.8192    9129.3564 
    2460    291.46072   -2934.5666   -2501.0409    9064.0961 
    2470    295.64218   -2942.4101   -2502.6648    8885.6517 
    2480    301.00986   -2950.4317   -2502.7024    8677.4021 
    2490    305.03511   -2956.1733   -2502.4567    8518.9888 
    2500    307.22776   -2959.4126   -2502.4346     8417.005 
    2510    308.39912   -2961.7834   -2503.0631     8339.797 
    2520    310.18599   -2965.4812    -2504.103    8245.3993 
    2530    312.66251   -2969.2582   -2504.1964    8143.4593 
    2540     314.8489   -2970.6732   -2502.3594    8081.7633 
    2550    316.35711   -2971.6643   -2501.1071    8042.5781 
    2560    316.93831   -2972.5072   -2501.0855    8030.0532 
    2570    316.58089   -2970.8376   -2499.9475    8071.1112 
    2580    314.95921   -2968.7964   -2500.3185    8147.8072 
    2590    311.23513   -2963.2603   -2500.3217    8307.5029 
    2600    306.44135   -2957.6575   -2501.8492    8488.3217 
    2610     301.3987   -2950.7534   -2502.4457    8689.5352 
    2620    297.08462   -2943.9848    -2502.094    8881.0016 
    2630    294.04414    -2942.568   -2505.1997    8965.8041 
    2640    294.84193   -2942.5857   -2504.0307    8954.4943 
    2650    297.86193   -2945.2029   -2502.1558    8856.7062 
    2660    299.31114   -2947.5643   -2502.3617    8782.4395 
    2670    298.36941   -2945.6427   -2501.8408    8810.8567 
    2680     296.0394   -2941.1312    -2500.795    8890.7946 
    2690    295.12097   -2938.9954   -2500.0253    8918.9799 
    2700    295.08565   -2940.5811   -2501.6636    8892.9611 
    2710    296.61189   -2944.4672   -2503.2795    8816.6929 
    2720    298.29465   -2948.4772   -2504.7865    8733.3018 
    2730     298.4532   -2949.9362   -2506.0096    8712.2723 
    2740    297.92246   -2950.8609   -2507.7238    8708.6377 
    2750    296.84662   -2949.1022   -2507.5653    8740.6396 
    2760     294.8844   -2946.9486   -2508.3304    8799.2547 
    2770    291.07716   -2942.6493   -2509.6941    8928.3245 
    2780    289.02393    -2941.214   -2511.3128    8983.1039 
    2790    290.95854   -2943.0232   -2510.2445    8934.2212 
    2800    294.87002   -2950.1063   -2511.5095    8780.5764 
    2810    298.98245   -2958.5685   -2513.8547    8614.3745 
    2820    301.75953   -2961.5553   -2512.7109    8527.0573 
    2830    303.26017   -2962.1695    -2511.093    8490.7805 
    2840    303.54498   -2960.9677   -2509.4675    8495.2312 
    2850    301.84816   -2958.5921   -2509.6158    8553.4997 
    2860    298.18426   -2952.1107   -2508.5842    8692.8534 
    2870    293.79669   -2943.9438   -2506.9435    8866.1798 
    2880    290.05679   -2939.0142   -2507.5767    8985.8112 
    2890     288.0157    -2938.251   -2509.8495    9035.1144 
    2900    287.46615    -2937.795   -2510.2108    9051.4903 
    2910    288.03414   -2937.8637   -2509.4347    9038.6015 
    2920    289.00504   -2940.8461    -2510.973    8985.6744 
    2930    291.29792   -2943.0075   -2509.7239    8918.3393 
    2940    294.11037   -2946.9426   -2509.4757    8811.4479 
    2950    293.74569   -2946.1897   -2509.2652    8820.6671 
    2960    290.31858   -2941.7581   -2509.9312    8930.1712 
    2970    287.67678   -2937.9904    -2510.093    9021.7427 
    2980     285.2137   -2933.4736   -2509.2398    9130.1996 
    2990     284.8909   -2933.2361   -2509.4824    9150.0237 
    3000     287.2022   -2936.9873   -2509.7958    9075.0898 
    3010    289.93799   -2941.2797   -2510.0189    8987.1427 
    3020    293.92298   -2947.1266   -2509.9385    8860.3329 
    3030    297.54982   -2954.4352   -2511.8524    8720.6959 
    3040    300.70655   -2956.7258   -2509.4476    8634.7842 
    3050    303.55639   -2960.9309   -2509.4138    8529.9811 
    3060     306.4683   -2964.2891   -2508.4407    8430.4313 
    3070    308.93822   -2968.0859   -2508.5637    8321.5873 
    3080     309.0506   -2969.5168   -2509.8274    8278.4055 
    3090    307.41251   -2966.4864   -2509.2336     8316.031 
    3100    304.40547   -2963.1268   -2510.3467    8379.4768 
    3110    302.19027   -2959.5318   -2510.0466    8434.5577 
    3120    300.12976   -2957.6012   -2511.1809    8473.0813 
    3130    299.55814   -2956.6213   -2511.0513    8481.6145 
    3140    299.69274   -2958.7127   -2512.9425    8452.3552 
    3150    300.39422   -2958.4967   -2511.6831    8444.4173 
    3160    301.03087   -2958.4627   -2510.7021    8434.9588 
    3170    301.23347   -2957.9998   -2509.9378    8438.0667 
    3180    301.02464    -2957.923   -2510.1717    8446.7437 
    3190    299.58122   -2956.1893    -2510.585    8502.4342 
    3200     294.5681   -2950.2638    -2512.116    8679.2497 
    3210    288.67159   -2940.8453   -2511.4681    8907.3242 
    3220    283.81563   -2935.1271   -2512.9728    9086.7497 
    3230    280.00278   -2929.3756   -2512.8927    9241.5626 
    3240    278.85194   -2927.8755   -2513.1043    9294.7205 
    3250    279.78841    -2928.378   -2512.2139    9281.0784 
    3260    282.29886   -2932.0652    -2512.167    9195.5776 
    3270    285.57299   -2936.1167   -2511.3486    9080.8091 
    3280     288.7536   -2942.5925   -2513.0934    8940.4394 
    3290    292.61522   -2946.8692   -2511.6262    8811.0335 
    3300    293.55046   -2949.4638   -2512.8298    8754.1791 
    3310    293.46358   -2951.3442   -2514.8394    8719.7455 
    3320    294.51245   -2952.3068   -2514.2419     8674.911 
    3330    296.90145   -2954.4248   -2512.8064    8598.0652 
    3340    297.68689   -2954.1916   -2511.4049    8581.6314 
    3350    295.91845   -2952.4144   -2512.2581    8638.9009 
    3360    292.74438   -2948.7494   -2513.3143    8740.9401 
    3370    288.54483   -2940.3068   -2511.1182    8922.8132 
    3380    284.38622   -2933.0949   -2510.0919    9097.9571 
    3390    281.24054   -2928.1433   -2509.8193    9222.9035 
    3400    279.97108   -2927.2286   -2510.7929    9267.3198 
    3410    279.56697   -2925.5406   -2509.7059    9300.3002 
    3420    279.83086   -2926.1988   -2509.9716    9287.9929 
    3430    280.60932   -2926.7343   -2509.3492    9265.0351 
    3440    282.74807   -2931.2982   -2510.7319    9174.7916 
    3450    286.74128   -2937.8979   -2511.3919    9023.6084 
    3460    291.52475   -2943.7247   -2510.1037    8877.7599 
    3470    296.31471   -2951.3716   -2510.6259    8706.2911 
    3480     300.2241   -2957.3142   -2510.7536    8577.1633 
    3490    302.94602   -2961.8164   -2511.2072    8493.3723 
    3500     304.8227    -2962.201   -2508.8003    8469.6333 
    3510    305.43973    -2963.871   -2509.5525    8451.2751 
    3520    305.01391   -2962.3852   -2508.7001    8482.2594 
    3530    303.60817   -2958.6354   -2507.0413    8557.4257 
    3540    301.82875   -2956.1654    -2507.218    8630.9795 
    3550    298.73537   -2951.8294   -2507.4832    8760.1573 
    3560    296.19329   -2947.3441    -2506.779    8880.6523 
    3570    293.65153   -2943.7707   -2506.9863    9001.3656 
    3580     293.4788   -2945.0058   -2508.4784    9019.1896 
    3590    294.06061   -2947.4475   -2510.0546    9008.4449 
    3600    292.64086   -2944.4635   -2509.1824    9098.9442 
    3610    290.19723   -2941.4326   -2509.7862    9195.3147 
    3620    287.91947   -2938.5869   -2510.3285    9280.6819 
    3630    284.79735   -2933.9081   -2510.2937    9399.5965 
    3640    282.40977   -2929.1536   -2509.0905    9495.2909 
    3650    282.43913   -2928.1021   -2507.9953     9496.751 
    3660    285.56418   -2931.4278   -2506.6727    9391.4013 
    3670    290.73588   -2938.9252   -2506.4776    9193.1769 
    3680    295.71215   -2946.8728   -2507.0234    8996.6295 
    3690    299.19533    -2950.623   -2505.5926    8874.3069 
    3700    302.22178   -2953.5538   -2504.0218     8769.414 
    3710    303.43723   -2954.9615   -2503.6216    8713.3442 
    3720    302.43583   -2953.7296   -2503.8792    8738.7614 
    3730    300.77186   -2952.3982   -2505.0228    8786.4817 
    3740    300.39039   -2951.8284   -2505.0204    8810.8944 
    3750    301.67441   -2954.0516   -2505.3337    8780.8969 
    3760     303.0491   -2955.5227   -2504.7601    8760.8131 
    3770    303.10351   -2955.4094   -2504.5659    8786.5341 
    3780    301.41162   -2952.0441   -2503.7172    8880.6752 
    3790    298.20264   -2946.6588   -2503.1049    9025.4368 
    3800    293.14935   -2941.6034    -2505.566    9189.9855 
    3810    288.53182   -2936.2414   -2507.0722     9349.142 
    3820    283.97542   -2930.6638   -2508.2719    9494.6724 
    3830    282.40069   -2928.6875   -2508.6379    9530.5014 
    3840    283.69503   -2928.8054   -2506.8305    9481.8802 
    3850    287.20654   -2933.4244   -2506.2265    9340.1815 
    3860    291.16372   -2938.7481   -2505.6641    9174.3296 
    3870    294.81156    -2943.978   -2505.4682    9031.0455 
    3880    297.64048   -2948.3974   -2505.6798    8909.4125 
    3890    298.79571   -2948.1331   -2503.6971    8878.0769 
    3900    299.50336      -2949.8   -2504.3114    8840.5937 
    3910    302.55279   -2952.1539   -2502.1296    8759.8243 
    3920    307.72214   -2959.4133      -2501.7    8592.5482 
    3930    313.77771   -2967.3632   -2500.6427    8404.2291 
    3940    317.32769   -2970.6195   -2498.6186    8301.8649 
    3950    318.74123   -2973.3861   -2499.2827    8241.4583 
    3960    318.18826   -2973.5075   -2500.2266    8246.0575 
    3970    316.50099   -2970.7349   -2499.9636    8307.7131 
    3980    314.26583   -2966.9453   -2499.4987     8397.897 
    3990    310.55927   -2962.8543    -2500.921    8515.8746 
    4000    307.16285   -2957.8499   -2500.9685    8634.6529 
    4010    305.95882   -2958.2217   -2503.1312    8652.3462 
    4020    308.55829    -2960.066   -2501.1089     8587.571 
    4030    313.33055   -2967.3889   -2501.3334     8421.322 
    4040    316.52611   -2971.5887   -2500.7801    8311.8174 
    4050    317.20096   -2974.5151   -2502.7027    8257.1283 
    4060    314.64606   -2970.6582    -2502.646    8332.9268 
    4070    309.26852   -2962.7116   -2502.6981    8509.5781 
    4080    302.30996   -2954.2023   -2504.5392    8724.2346 
    4090     294.7327    -2942.947   -2504.5544    8995.6225 
    4100    287.22957   -2930.7067   -2503.4745    9281.3936 
    4110    281.91534   -2923.5299   -2504.2022    9474.5332 
    4120     279.3323   -2918.9421   -2503.4564    9586.4263 
    4130    280.26965   -2919.6603   -2502.7805    9569.6353 
    4140    283.75613   -2925.8239   -2503.7582    9438.8424 
    4150    287.84727   -2931.5996   -2503.4486    9302.9689 
    4160    292.56368   -2937.5098   -2502.3435    9149.4644 
    4170    295.40748   -2940.8033    -2501.407    9055.8691 
    4180    297.90025   -2944.2658   -2501.1618    8971.1067 
    4190    299.74196    -2948.647   -2502.8036    8877.4896 
    4200    301.14621   -2951.8056   -2503.8734    8809.1387 
    4210    303.81557   -2955.8114   -2503.9088    8705.2575 
    4220    307.51672   -2958.2177   -2500.8099    8602.8429 
    4230    313.32208   -2965.2512   -2499.2083    8421.3259 
    4240    318.26501   -2970.7693   -2497.3742    8268.8164 
    4250    320.41451    -2975.166   -2498.5737    8184.2006 
    4260    318.30336   -2972.5269   -2499.0748    8250.4158 
    4270    312.54267    -2963.806   -2498.9225     8454.084 
    4280    305.50768   -2953.8413   -2499.4218    8693.0483 
    4290    299.67393   -2944.4883   -2498.7461    8916.9582 
    4300    295.60077   -2939.4439   -2499.7602    9051.6557 
    4310    293.79687   -2937.7499   -2500.7493    9111.2567 
    4320    292.66179   -2935.4921   -2500.1799    9162.8547 
    4330    291.88465   -2936.3106   -2502.1543    9170.7607 
    4340    291.21075   -2935.3212   -2502.1672    9196.8486 
    4350    290.63505   -2935.1554   -2502.8578    9213.1229 
    4360    290.14319   -2932.2638   -2500.6978    9257.8103 
    4370    290.28777   -2932.8195   -2501.0385     9247.214 
    4380    290.55654   -2932.3645   -2500.1837    9240.5594 
    4390    290.98951   -2933.7179   -2500.8931    9209.1462 
    4400    292.40807   -2933.8417   -2498.9069    9177.6536 
    4410    294.59636   -2937.4808   -2499.2911    9101.7504 
    4420    295.92487   -2940.1204   -2499.9546    9063.5332 
    4430    295.06567   -2938.2911   -2499.4032    9120.3621 
    4440     291.0176   -2933.2984   -2500.4318    9278.4202 
    4450    284.26078    -2923.204   -2500.3876    9546.3298 
    4460    276.84575   -2912.0469   -2500.2598    9834.7394 
    4470    271.36029   -2905.0114   -2501.3836    10040.643 
    4480    269.79713   -2901.7145   -2500.4117    10120.753 
    4490    271.46374    -2903.342   -2499.5603    10079.718 
    4500    274.71367   -2909.1712   -2500.5554    9953.6134 
    4510    276.60695    -2913.331   -2501.8991    9857.8669 
    4520    277.45859   -2915.4007   -2502.7021    9799.0298 
    4530    280.30407   -2916.8985   -2499.9675    9705.7858 
    4540    285.27978   -2925.3182   -2500.9861    9483.9563 
    4550    290.51951   -2933.7775   -2501.6517    9258.8542 
    4560    294.99686    -2938.898   -2500.1125    9090.4246 
    4570    298.55546   -2943.9268   -2499.8481    8954.4214 
    4580     299.9215   -2944.7891   -2498.6786    8903.6498 
    4590    298.87746   -2941.7001   -2497.1426    8951.2323 
    4600    297.38286   -2940.9947   -2498.6602    8992.6179 
    4610    295.67721   -2939.5208   -2499.7234    9058.4565 
    4620    293.11864   -2934.9426   -2498.9508    9189.4541 
    4630    289.29618     -2928.51   -2498.2039    9371.0662 
    4640    285.19309   -2922.3029   -2498.0998    9564.7019 
    4650    281.48906   -2917.1986    -2498.505    9734.8943 
    4660    279.83141   -2916.1394   -2499.9114    9811.0503 
    4670    282.49938   -2918.5361   -2498.3397    9761.5528 
    4680    287.25354   -2925.0728   -2497.8049    9615.6323 
    4690    291.38338   -2932.4766   -2499.0659    9462.8979 
    4700    294.02565   -2935.4906   -2498.1498    9382.6028 
    4710    294.08172   -2935.7528   -2498.3285    9380.0657 
    4720    291.93364   -2931.6379   -2497.4087     9471.119 
    4730    289.02686   -2928.1649   -2498.2594    9569.8612 
    4740    286.08251   -2923.2347   -2497.7086    9692.2897 
    4750    284.06873   -2918.3063   -2495.7756    9790.5399 
    4760    283.74924   -2918.2757   -2496.2202    9795.1047 
    4770    285.21312   -2920.0844   -2495.8515    9736.8039 
    4780    288.06593   -2922.9589   -2494.4827    9634.8744 
    4790    291.30626   -2928.6826   -2495.3866    9489.3281 
    4800    293.89658   -2932.3593   -2495.2104     9385.193 
    4810    295.55722   -2935.8481   -2496.2291    9308.6289 
    4820     295.6296    -2935.698   -2495.9714    9314.9018 
    4830    293.88978   -2934.5279   -2497.3891     9380.233 
    4840    290.59392   -2928.2871   -2496.0506    9538.9976 
    4850    285.89993   -2920.4167   -2495.1623    9748.2746 
    4860    281.31165   -2913.9094   -2495.4796    9932.9248 
    4870    278.07185   -2909.8748    -2496.264    10064.408 
    4880    276.12643   -2905.2599   -2494.5428     10168.14 
    4890    276.90083   -2906.9136   -2495.0446    10135.224 
    4900    279.33677    -2910.284   -2494.7918    10038.375 
    4910     281.5982   -2914.1753   -2495.3193    9931.7321 
    4920    282.79035   -2915.3148   -2494.6856    9878.1031 
    4930    283.84896   -2917.0372   -2494.8334    9823.2772 
    4940    285.11425   -2920.0205   -2495.9346    9753.0375 
    4950    286.03692   -2919.7259   -2494.2676    9731.0753 
    4960    286.34626   -2917.4789   -2491.5606    9747.4453 
    4970    285.84944   -2917.0326   -2491.8532    9763.6807 
    4980    285.48549   -2917.3261    -2492.688    9771.2926 
    4990    286.07189   -2918.7757   -2493.2654    9746.4484 
    5000    287.92317   -2920.2165   -2491.9526    9693.7095 
    5010    291.81148   -2923.2339   -2489.1864    9576.2737 
    5020    296.36665   -2929.3773   -2488.5544    9396.8062 
    5030     300.6317   -2935.6886   -2488.5217    9225.8617 
    5040    304.39909   -2938.5041   -2485.7336    9108.5969 
    5050    309.22177    -2945.535    -2485.591    8933.3708 
    5060    313.61905    -2951.139   -2484.6544    8779.3242 
    5070    317.84093   -2956.3279   -2483.5636    8639.6675 
    5080    321.00992   -2959.7825   -2482.3046    8547.2417 
    5090    323.60081   -2962.1988   -2480.8671    8482.8158 
    5100    325.07892   -2964.8935   -2481.3632    8439.8402 
    5110    324.22383   -2964.3885   -2482.1301    8475.4441 
    5120    320.37049   -2958.1467   -2481.6199    8628.1896 
    5130    313.96332   -2947.0742   -2480.0776     8892.344 
    5140    306.11347   -2935.8623   -2480.5417    9186.5609 
    5150    299.76351   -2927.1102   -2481.2347    9444.6293 
    5160    295.09217   -2919.8682    -2480.941    9649.8325 
    5170    293.31362   -2917.2704   -2480.9886    9746.9327 
    5180    292.37018     -2915.57   -2480.6916    9813.2066 
    5190     291.4715   -2913.8159   -2480.2741    9875.4046 
    5200    289.42209   -2910.2032   -2479.7098    9978.8231 
    5210      286.969   -2905.5722   -2478.7276    10096.712 
    5220    285.78156   -2905.2758   -2480.1974    10133.685 
    5230    286.06448   -2903.6283    -2478.129    10154.142 
    5240    287.27457   -2906.4918   -2479.1926    10105.962 
    5250    289.73354   -2909.1909   -2478.2342    10034.273 
    5260    291.75544   -2912.3826   -2478.4185    9960.6284 
    5270    292.89056   -2913.2551   -2477.6026    9931.1413 
    5280    293.91089   -2912.6215   -2475.4513    9922.0597 
    5290    295.87797   -2913.6194   -2473.5233    9880.5504 
    5300    299.07548   -2919.8444   -2474.9923    9764.8129 
    5310    303.58058   -2925.5712    -2474.018    9632.7132 
    5320    305.83551   -2928.6953   -2473.7882    9568.1702 
    5330    305.80747   -2927.1753   -2472.3098    9609.0906 
    5340    303.13933   -2924.5699   -2473.6731    9732.6989 
    5350    298.20563   -2916.4115   -2472.8532    9955.5358 
    5360    293.02386   -2909.4103   -2473.5595    10182.712 
    5370    287.29189   -2899.6762   -2472.3513    10442.231 
    5380    283.91814   -2893.7224   -2471.4157    10604.252 
    5390    283.05283   -2892.4371   -2471.4175    10660.681 
    5400      284.135   -2893.5968   -2470.9675    10638.984 
    5410     286.1052   -2896.1546   -2470.5948    10570.985 
    5420    288.73148   -2900.3909   -2470.9247    10462.534 
    5430    292.11894   -2905.2968    -2470.792     10315.77 
    5440    295.88088   -2911.5831   -2471.4827    10140.314 
    5450    298.75834   -2914.6552   -2470.2748    10019.444 
    5460    301.13567   -2916.0518   -2468.1353    9936.4616 
    5470     303.3311   -2919.6149   -2468.4329    9838.8298 
    5480    305.58502   -2923.1749   -2468.6403    9745.1374 
    5490    307.60845    -2925.178   -2467.6338    9671.8396 
    5500    308.40609   -2926.2369   -2467.5062    9646.3749 
    5510    307.37192    -2924.789   -2467.5966    9704.8856 
    5520     304.5873   -2921.5267   -2468.4762    9821.6951 
    5530    301.30316   -2914.9668   -2466.8012    9981.5614 
    5540     297.2329   -2907.7772   -2465.6658    10173.836 
    5550    293.47909   -2901.2691   -2464.7412    10343.485 
    5560    292.52026   -2898.0388   -2462.9371    10416.656 
    5570      294.602   -2900.0173   -2461.8191    10366.633 
    5580    298.74649   -2906.3869   -2462.0241    10216.264 
    5590     303.5466   -2913.7032   -2462.2006    10035.447 
    5600    307.40362   -2918.8416    -2461.602    9901.7971 
    5610    310.55518   -2923.0759   -2461.1486    9791.5595 
    5620    312.64697    -2924.936   -2459.8974    9717.5582 
    5630    313.78831     -2926.68   -2459.9437    9664.8186 
    5640    315.16781   -2927.7818   -2458.9936      9624.51 
    5650    317.11386   -2929.3831   -2457.7003    9574.1941 
    5660    318.48895   -2931.5053   -2457.7771    9526.5294 
    5670    317.85026   -2930.7429   -2457.9647    9545.8053 
    5680    316.08334   -2928.8613   -2458.7113    9591.4097 
    5690    314.38391   -2925.2155   -2457.5933    9655.7756 
    5700    312.48261   -2921.4934   -2456.6992    9724.3341 
    5710    313.18306     -2921.36    -2455.524    9699.0314 
    5720     316.6175   -2924.9515    -2454.007    9575.2984 
    5730    320.64788   -2932.8243   -2455.8848    9392.5311 
    5740     324.7192     -2936.84   -2453.8448    9254.3952 
    5750    328.31624   -2942.9814   -2454.6359    9116.5545 
    5760    331.01492   -2945.9567   -2453.5971    9037.3104 
    5770    329.40485   -2944.4552   -2454.4905    9097.2114 
    5780    324.71918   -2939.7193   -2456.7241    9248.6892 
    5790    319.18423   -2929.9492   -2455.1869    9484.0733 
    5800    313.74687   -2921.4104   -2454.7358    9712.6703 
    5810    309.78729   -2916.0982   -2455.3131    9874.9443 
    5820    307.69183   -2911.4585   -2453.7902    9995.5111 
    5830    306.16957     -2907.95    -2452.546    10090.163 
    5840     306.6169   -2908.4003   -2452.3309    10091.259 
    5850    308.76755   -2912.6834   -2453.4151    10008.121 
    5860    311.32844   -2918.6237   -2455.5462    9899.9158 
    5870     314.3117   -2924.3802   -2456.8653    9786.5539 
    5880    315.54323   -2925.1856    -2455.839    9756.6844 
    5890    314.44925   -2922.6887   -2454.9692    9815.0722 
    5900    312.46875   -2920.1703   -2455.3967    9890.7714 
    5910    310.41035   -2916.7456   -2455.0337    9978.1488 
    5920    308.02609   -2912.0166   -2453.8511    10085.267 
    5930    305.13202   -2907.4513   -2453.5906    10200.654 
    5940    303.75914   -2905.8325   -2454.0138    10245.957 
    5950    304.77476   -2905.8022   -2452.4729    10225.395 
    5960    307.51301   -2910.0957   -2452.6934     10123.44 
    5970    309.69967   -2914.8736   -2454.2188    10026.933 
    5980    310.53066   -2914.5196   -2452.6287    10019.022 
    5990    309.15998   -2912.7522   -2452.9002    10078.921 
    6000    304.92134   -2906.0994    -2452.552     10259.09 
    6010    299.85847   -2896.6912   -2450.6745    10485.682 
    6020    296.31622   -2890.1981   -2449.4502    10658.925 
    6030    294.53833   -2886.7652   -2448.6617    10768.356 
    6040    295.06265   -2887.8753   -2448.9919    10779.926 
    6050    296.82086   -2891.4325    -2449.934    10736.981 
    6060    298.36958   -2893.2185   -2449.4163    10714.728 
    6070    298.67072    -2892.769    -2448.519    10732.918 
    6080    297.70171   -2893.0901   -2450.2813    10757.924 
    6090    296.00696   -2890.2447   -2449.9567    10826.422 
    6100    293.75942   -2885.2632   -2448.3183     10925.12 
    6110    291.82339   -2882.4728   -2448.4077    10987.453 
    6120    290.56562   -2878.8786   -2446.6842    11034.694 
    6130    290.69497   -2878.1692   -2445.7825    11012.518 
    6140     292.2761   -2883.7451   -2449.0065    10889.853 
    6150    294.85976    -2889.192   -2450.6105    10753.104 
    6160     297.6105   -2892.1414   -2449.4683    10652.522 
    6170    299.82462   -2896.0468   -2450.0804    10567.697 
    6180    299.93036   -2897.2723   -2451.1486    10559.771 
    6190    298.15165   -2893.5738   -2450.0958    10651.443 
    6200    295.74208   -2888.7817   -2448.8878    10782.865 
    6210     293.2898   -2882.9206   -2446.6743    10941.895 
    6220    291.09139   -2879.8872   -2446.9108     11072.54 
    6230    289.97369    -2878.881   -2447.5671    11155.037 
    6240    289.96389   -2878.8524   -2447.5531     11199.33 
    6250     291.3353   -2879.3456   -2446.0065    11202.706 
    6260    294.53842   -2884.3569   -2446.2533    11107.605 
    6270    298.34588   -2888.6575   -2444.8906    10996.499 
    6280    301.62384   -2893.5143   -2444.8717    10879.285 
    6290    304.70319    -2898.136   -2444.9131    10763.915 
    6300    308.23919   -2903.1901   -2444.7077    10621.733 
    6310    310.82935    -2907.139   -2444.8039    10499.091 
    6320    313.55363   -2910.2842   -2443.8969    10383.256 
    6330    315.42537   -2913.5092   -2444.3378    10288.362 
    6340     315.5807   -2911.2618   -2441.8594    10303.425 
    6350    312.93014   -2907.9957   -2442.5358    10396.556 
    6360    307.97642   -2901.3407   -2443.2491    10576.555 
    6370    301.67365   -2894.1204   -2445.4037    10778.819 
    6380    296.30062   -2885.5634   -2444.8386    10990.793 
    6390    292.50086   -2879.8721   -2444.7992    11135.962 
    6400    292.26495   -2879.0249    -2444.303     11149.52 
    6410    294.34118   -2882.1299   -2444.3197    11064.707 
    6420    296.47052   -2884.7357   -2443.7583    10969.537 
    6430    297.66357   -2886.5281   -2443.7761      10897.8 
    6440    298.25765   -2888.0343   -2444.3986    10837.322 
    6450    298.86379   -2889.1806   -2444.6434    10784.209 
    6460    299.95949   -2891.2747   -2445.1077    10720.105 
    6470    301.71379   -2892.1391   -2443.3627    10668.716 
    6480    304.20799   -2896.2454    -2443.759    10580.255 
    6490    306.63386   -2898.2945   -2442.1999    10526.313 
    6500    308.05156   -2901.2444   -2443.0411    10484.003 
    6510    306.93901   -2900.8696   -2444.3211    10528.809 
    6520    304.12484   -2897.2756   -2444.9129    10637.515 
    6530    301.83652   -2893.6562   -2444.6972     10739.86 
    6540    301.25583   -2891.8706   -2443.7753    10790.131 
    6550    302.26002   -2893.5294   -2443.9406    10772.877 
    6560    304.51283   -2897.3831   -2444.4434    10700.794 
    6570    307.11755   -2899.3103   -2442.4962    10631.148 
    6580    309.94957   -2903.9598   -2442.9333    10508.901 
    6590    311.87466   -2906.8858   -2442.9958    10416.148 
    6600    313.44192   -2908.7774   -2442.5563    10342.738 
    6610    314.18654   -2908.3979   -2441.0692    10308.525 
    6620    313.83801   -2908.7525   -2441.9423    10285.774 
    6630    312.72808   -2906.3634   -2441.2041      10308.8 
    6640    310.70297   -2901.9395   -2439.7923    10384.726 
    6650    309.07708    -2898.266   -2438.5373    10444.576 
    6660    309.30825   -2897.9255   -2437.8529    10437.524 
    6670    309.76804   -2897.4026   -2436.6462    10430.406 
    6680    309.62259    -2899.263   -2438.7228    10409.059 
    6690    311.21813   -2902.5775   -2439.6641    10332.427 
    6700    314.09857   -2906.7548   -2439.5569    10214.422 
    6710    318.42728   -2910.7928   -2437.1564    10079.882 
    6720    323.29441   -2918.2619    -2437.386    9898.3378 
    6730    327.35536   -2924.8628   -2437.9465    9744.2614 
    6740    328.03276   -2927.6516   -2439.7277    9695.8332 
    6750    325.51201   -2923.4297   -2439.2552    9795.8712 
    6760    320.54325   -2918.9229   -2442.1391    9945.9778 
    6770      315.592    -2910.519   -2441.0998    10152.466 
    6780    310.93845   -2903.4678   -2440.9704     10345.36 
    6790    307.82102   -2898.0919   -2440.2315     10486.63 
    6800    307.60928   -2899.3739   -2441.8284    10500.523 
    6810    310.06274   -2900.4066   -2439.2117    10468.774 
    6820    312.75656   -2904.9531   -2439.7514    10382.073 
    6830    312.55796   -2902.8553    -2437.949    10433.289 
    6840    310.00114   -2898.7996   -2437.6964    10554.363 
    6850    307.20633    -2894.867   -2437.9209    10684.245 
    6860    303.86218   -2889.6667   -2437.6947    10843.928 
    6870    300.97445   -2886.5851   -2438.9085    10972.392 
    6880    299.99626   -2884.4594   -2438.2377    11048.962 
    6890    301.22662   -2886.0257   -2437.9739    11036.891 
    6900    304.34517   -2892.2813   -2439.5909     10926.27 
    6910    307.99262    -2898.273   -2440.1573    10800.574 
    6920    312.20926   -2902.6475   -2438.2599    10672.504 
    6930    315.40222   -2907.5701   -2438.4332    10539.559 
    6940    317.34045   -2911.9372   -2439.9174    10434.982 
    6950    316.10655   -2910.7319   -2440.5474    10449.354 
    6960    311.67054   -2906.1756   -2442.5893    10556.116 
    6970    305.53928   -2898.6881   -2444.2215    10723.767 
    6980    301.17085   -2890.3753   -2442.4065    10871.577 
    6990    298.74395   -2885.2572   -2440.8982    10949.661 
    7000    298.62011   -2884.6043   -2440.4295    10934.945 
    7010    299.24247   -2884.0427   -2438.9422    10907.459 
    7020    298.92561   -2882.1265   -2437.4973    10917.389 
    7030    298.04729   -2880.6313   -2437.3086    10933.164 
    7040    299.09704   -2880.2017   -2435.3176    10893.615 
    7050    302.04169   -2885.9975   -2436.7334     10739.86 
    7060    305.92454   -2894.3178   -2439.2782    10539.604 
    7070    310.29248   -2902.2852   -2440.7487    10343.447 
    7080    314.35704   -2910.1505   -2442.5682    10155.571 
    7090    316.78825   -2913.4262   -2442.2277    10057.452 
    7100    316.37067   -2913.9328   -2443.3554    10056.037 
    7110    313.57712   -2910.0309   -2443.6087    10164.408 
    7120    309.87177   -2905.0296   -2444.1188    10315.926 
    7130    305.95458   -2899.5538   -2444.4695    10488.662 
    7140    302.89558   -2893.1269   -2442.5926    10664.688 
    7150    298.43097   -2886.5616   -2442.6681    10882.222 
    7160    292.49988   -2876.1367   -2441.0653    11169.086 
    7170    286.43422   -2867.4553   -2441.4061    11429.047 
    7180    283.47059   -2863.9001   -2442.2591    11545.088 
    7190    285.12584   -2865.9078   -2441.8047    11496.869 
    7200    291.22919   -2875.3426   -2442.1612    11254.466 
    7210    297.27081   -2884.3513   -2442.1835    10995.995 
    7220     301.4355   -2890.8554    -2442.493     10798.33 
    7230    302.63615   -2892.8784   -2442.7301    10710.834 
    7240     301.1173   -2890.6103   -2442.7211    10736.764 
    7250    296.87812   -2882.9797    -2441.396    10891.735 
    7260    291.87192   -2874.2604    -2440.123    11086.749 
    7270    288.08074   -2869.0139   -2440.5156     11228.77 
    7280    287.10463   -2868.1071   -2441.0608    11266.524 
    7290    288.28677   -2870.4066   -2441.6019    11222.429 
    7300    288.90147   -2873.1595   -2443.4405    11177.847 
    7310    289.02039   -2872.4724   -2442.5765    11177.962 
    7320    289.35232   -2872.0151   -2441.6254    11170.779 
    7330     289.8061   -2871.7594   -2440.6948    11158.661 
    7340    289.92905   -2873.1679   -2441.9204    11130.253 
    7350    291.48851   -2876.1406   -2442.5735    11045.914 
    7360    294.41443   -2878.8444   -2440.9252    10926.208 
    7370    297.63823   -2885.3795   -2442.6651    10760.983 
    7380    300.30321    -2888.779   -2442.1007    10644.764 
    7390    301.53608   -2888.8758   -2440.3637    10596.817 
    7400    301.77831   -2889.1697   -2440.2974    10577.604 
    7410    301.46802   -2888.4096   -2439.9988    10591.839 
    7420    300.52457   -2888.4383   -2441.4308    10616.843 
    7430    298.94292   -2885.6897   -2441.0348    10689.932 
    7440    296.78908   -2882.1952    -2440.744    10787.247 
    7450    294.58239   -2877.6877   -2439.5188    10896.486 
    7460    293.18234   -2877.1843   -2441.0977    10948.212 
    7470    293.11211   -2877.3435   -2441.3614    10970.644 
    7480     294.3426   -2879.7297   -2441.9174    10950.028 
    7490    296.99033   -2883.4414   -2441.6908    10891.435 
    7500    298.25702   -2886.2119   -2442.5772        10872 
    7510    297.78055   -2886.1023   -2443.1763    10926.094 
    7520    296.38586   -2882.5484   -2441.6969    11046.004 
    7530    294.60991   -2879.7323   -2441.5224    11168.123 
    7540    293.18181    -2876.069   -2439.9833    11287.995 
    7550    290.93652   -2872.4365   -2439.6904    11416.698 
    7560    288.83101   -2869.3684   -2439.7541    11533.025 
    7570    287.64643   -2867.0809   -2439.2287    11609.486 
    7580    288.63592   -2869.3053   -2439.9813     11578.19 
    7590    289.93271   -2871.4549    -2440.202    11528.865 
    7600    290.38211   -2872.0434    -2440.122    11504.328 
    7610    290.49712   -2872.9947   -2440.9023     11469.19 
    7620    292.23726   -2875.3853   -2440.7045    11372.204 
    7630    295.61413   -2883.3084   -2443.6048    11164.078 
    7640    299.59346   -2888.7675    -2443.145    10970.417 
    7650    304.10437   -2895.6328   -2443.3006     10759.16 
    7660    307.79298   -2900.5037    -2442.685    10598.345 
    7670    309.41404   -2902.4337   -2442.2037    10515.343 
    7680    306.26561    -2899.376   -2443.8292    10584.739 
    7690    300.61826   -2891.0588   -2443.9119    10778.273 
    7700    293.75498    -2879.892   -2442.9537    11047.806 
    7710    287.89852   -2870.4751   -2442.2478    11287.484 
    7720    285.22707   -2864.1585   -2439.9048    11428.279 
    7730    286.93776   -2866.5846   -2439.7865    11381.368 
    7740    291.71234   -2873.7523   -2439.8523    11206.154 
    7750     297.2148   -2882.5553   -2440.4708    10991.829 
    7760    301.40922   -2890.7117   -2442.3884    10800.882 
    7770    304.08728   -2894.1369   -2441.8301     10690.11 
    7780    305.61357   -2898.3365   -2443.7594    10586.859 
    7790    307.21192   -2900.6106   -2443.6562    10507.333 
    7800    310.01184   -2905.7344   -2444.6153    10366.436 
    7810    311.29254   -2906.8579   -2443.8338    10306.066 
    7820    310.85348   -2906.2701   -2443.8991    10309.774 
    7830    308.71994   -2902.9346    -2443.737    10392.281 
    7840    306.52149   -2897.7239   -2441.7964    10500.513 
    7850    305.73412   -2896.6909   -2441.9346    10546.838 
    7860    305.39111   -2896.4951   -2442.2489    10585.852 
    7870    305.66269    -2898.735   -2444.0849    10592.863 
    7880    307.44495   -2898.3712   -2441.0702    10599.559 
    7890    309.81945   -2901.9038   -2441.0709    10538.479 
    7900    310.20991   -2901.3167    -2439.903    10541.414 
    7910    310.01255   -2902.2401   -2441.1199    10528.193 
    7920    310.59895   -2904.4499   -2442.4575    10482.884 
    7930     312.2058    -2906.153   -2441.7706     10423.47 
    7940    315.35539   -2910.6839   -2441.6167    10306.482 
    7950    318.69533   -2916.6976   -2442.6625    10167.375 
    7960    320.85303   -2918.4678   -2441.2233    10098.709 
    7970    320.31573   -2917.8165   -2441.3711    10109.445 
    7980    317.84719   -2912.1229   -2439.3493    10216.931 
    7990     314.2928   -2906.1583   -2438.6716    10351.798 
    8000    310.99512   -2901.1315   -2438.5499    10473.934 
    8010    308.84688   -2898.8766   -2439.4903    10528.064 
    8020    307.93102   -2898.1175   -2440.0935    10529.927 
    8030    306.95863   -2896.0743   -2439.4966    10540.319 
    8040     305.4694   -2892.9529   -2438.5903    10574.764 
    8050    305.88914   -2894.3013   -2439.3144    10528.589 
    8060    308.40712    -2898.629   -2439.8968    10419.211 
    8070    312.07754   -2905.2404   -2441.0487     10277.73 
    8080    313.81981   -2907.8886   -2441.1054    10220.457 
    8090    313.86769   -2906.8254    -2439.971    10235.607 
    8100    311.63898   -2904.7955   -2441.2561    10310.379 
    8110    307.35659   -2899.7557   -2442.5861    10454.008 
    8120    304.87731   -2894.9857   -2441.5038    10567.688 
    8130    303.12426   -2891.6358   -2440.7614    10656.225 
    8140    301.53729   -2888.2188   -2439.7049    10745.742 
    8150    299.22725   -2884.5479   -2439.4701    10850.178 
    8160    295.69958   -2879.2085   -2439.3777    10992.239 
    8170    292.66054   -2875.2357   -2439.9253    11106.195 
    8180    292.31551   -2874.3892    -2439.592    11117.801 
    8190    295.25681    -2879.108   -2439.9359    10986.657 
    8200    299.51414    -2885.284   -2439.7794    10804.748 
    8210    303.85662   -2891.1948   -2439.2311    10620.163 
    8220    307.82952   -2898.5839   -2440.7108    10423.629 
    8230    313.32792   -2905.9459   -2439.8944    10208.124 
    8240    319.49623   -2914.7037   -2439.4772    9962.9288 
    8250    326.38282   -2924.3291   -2438.8594    9704.2034 
    8260    332.51238    -2931.907   -2437.3201    9490.2612 
    8270     336.6166   -2938.0359   -2437.3442    9337.6191 
    8280    338.40001   -2939.6301   -2436.2857    9292.1568 
    8290    337.67298   -2937.5685   -2435.3055    9340.3563 
    8300    334.17605   -2933.8099   -2436.7484    9472.7875 
    8310    327.63452   -2922.5301   -2435.1986    9751.7721 
    8320    319.70194   -2912.9941   -2437.4616    10038.374 
    8330    311.99258   -2903.3685   -2439.3031    10331.984 
    8340    305.44296   -2894.1621   -2439.8388    10598.866 
    8350    300.17045   -2886.2359   -2439.7552    10829.024 
    8360    296.16957   -2878.8318    -2438.302     11021.13 
    8370    294.40477   -2875.2799   -2437.3751    11113.857 
    8380    295.62577   -2878.2599    -2438.539    11060.395 
    8390    300.02761   -2884.1658   -2437.8975     10901.41 
    8400    305.48988   -2892.3421    -2437.949     10682.48 
    8410    310.35728     -2900.26   -2438.6271    10477.606 
    8420    314.36228   -2905.6678   -2438.0777    10317.167 
    8430    316.44269   -2909.6083   -2438.9237    10212.264 
    8440    316.34367   -2910.7985   -2440.2612    10179.537 
    8450    313.77074   -2907.4566   -2440.7464    10248.325 
    8460    311.05819   -2906.6835   -2444.0081    10296.302 
    8470    308.28505   -2902.4601   -2443.9094     10396.57 
    8480    306.67004   -2899.4582   -2443.3098    10456.461 
    8490    307.86171   -2902.8284   -2444.9074    10393.143 
    8500    308.48241   -2904.8944   -2446.0502     10350.42 
    8510     306.0045   -2902.0925   -2446.9339    10429.061 
    8520    301.66709   -2896.9347   -2448.2278    10564.557 
    8530    297.33352   -2888.5563   -2446.2952    10752.052 
    8540    293.83846   -2883.3151   -2446.2526    10896.699 
    8550    291.64655   -2878.6415   -2444.8394     11009.21 
    8560    290.83226   -2877.2268   -2444.6359    11056.292 
    8570    289.50258     -2873.86   -2443.2468    11133.314 
    8580    288.56525   -2872.6841   -2443.4652    11163.808 
    8590    289.25073   -2873.5137   -2443.2751    11126.843 
    8600    293.05537   -2879.4436   -2443.5459    10956.941 
    8610    299.91997   -2889.9696   -2443.8613    10664.555 
    8620    308.83767   -2902.6804   -2443.3078    10312.026 
    8630    319.33551   -2915.9745   -2440.9871     9939.504 
    8640    328.76712   -2931.8452    -2442.829    9567.5792 
    8650    334.24285   -2937.3862   -2440.2253    9389.1974 
    8660    335.66243   -2940.4078   -2441.1354    9333.0246 
    8670    333.47172   -2937.2949    -2441.281    9417.7634 
    8680     327.4971   -2928.9034   -2441.7763     9643.928 
    8690    319.13266   -2915.8184   -2441.1328    9973.1296 
    8700    310.23306   -2903.0231    -2441.575    10313.179 
    8710    302.61772   -2891.8438   -2441.7229    10608.626 
    8720    297.53727   -2885.1222   -2442.5581    10807.938 
    8730    295.57827   -2880.1629   -2440.5127    10918.105 
    8740    297.38413   -2885.1058   -2442.7695    10829.729 
    8750    299.62293   -2888.5722   -2442.9058    10742.772 
    8760     300.9854   -2892.9239   -2445.2309     10657.63 
    8770    301.24224   -2896.6851   -2448.6101    10603.789 
    8780    300.76295   -2896.5262   -2449.1641    10615.198 
    8790    299.69196   -2894.0935   -2448.3244     10675.76 
    8800    298.45487   -2892.4372   -2448.5082    10741.372 
    8810    295.94199    -2888.259   -2448.0677    10871.003 
    8820    291.85887   -2880.8567   -2446.7388    11069.498 
    8830    287.09582   -2872.1408   -2445.1075    11286.491 
    8840    283.61676   -2865.9677   -2444.1092    11442.311 
    8850    284.71374   -2867.5217   -2444.0316    11408.413 
    8860      288.887   -2874.4225    -2444.725    11241.125 
    8870    293.43566   -2881.8718   -2445.4085    11060.038 
    8880    295.98969   -2885.8773   -2445.6151    10955.179 
    8890    295.22506   -2885.4831   -2446.3582    10976.383 
    8900    291.42464   -2878.8044   -2445.3324    11137.534 
    8910    286.35607   -2871.1894   -2445.2565    11340.689 
    8920    281.67419   -2863.3105   -2444.3415    11540.124 
    8930    278.30797    -2857.808   -2443.8459    11688.236 
    8940    277.55273   -2858.3754   -2445.5368    11702.427 
    8950    279.76521   -2863.5149   -2447.3853    11596.438 
    8960    283.47188   -2869.8251   -2448.1822    11448.254 
    8970    287.30051   -2877.4103   -2450.0726    11277.951 
    8980    290.49868   -2882.4147     -2450.32    11156.321 
    8990    292.55678   -2885.4366   -2450.2805    11080.636 
    9000    292.67036    -2884.567    -2449.242    11096.408 
    9010    290.73768   -2882.3461   -2449.8958    11175.712 
    9020     288.1143   -2877.8982     -2449.35    11290.537 
    9030    286.27119    -2875.645   -2449.8383    11365.852 
    9040    285.01143   -2875.7091   -2451.7762    11400.258 
    9050     284.4377   -2874.3404   -2451.2609    11430.114 
    9060    284.52712   -2874.7226   -2451.5101     11418.05 
    9070    284.40024   -2872.7741   -2449.7503     11428.52 
    9080    283.68416   -2871.8987     -2449.94    11433.618 
    9090    282.45308   -2870.1129   -2449.9853    11459.122 
    9100    281.96471    -2868.964   -2449.5629    11459.313 
    9110    283.52687   -2869.6307    -2447.906    11392.968 
    9120    287.00139   -2875.8942   -2449.0014    11222.506 
    9130     291.8572   -2883.6487   -2449.5333    11000.547 
    9140    296.40282   -2889.6544   -2448.7777     10800.56 
    9150    299.92959   -2894.9194   -2448.7969    10624.715 
    9160    302.64149   -2899.7475   -2449.5913     10477.26 
    9170    305.89612   -2903.9072   -2448.9099    10329.741 
    9180    306.92277   -2905.9834    -2449.459    10251.857 
    9190    305.51571   -2904.3206   -2449.8891    10276.108 
    9200    302.89064   -2899.7239    -2449.197    10364.797 
    9210    303.92582   -2902.3901   -2450.3235    10313.077 
    9220    307.97422   -2908.7917   -2450.7034    10171.951 
    9230    313.17929   -2918.7348   -2452.9043    9979.5911 
    9240    316.74413   -2925.1083   -2453.9754    9861.0891 
    9250    316.25842   -2925.3547   -2454.9442     9888.528 
    9260    312.56944    -2919.013   -2454.0896    10052.206 
    9270     308.6514   -2915.3966   -2456.3011     10187.31 
    9280    306.19479   -2911.9973   -2456.5557    10292.882 
    9290    305.14731   -2910.6426   -2456.7591     10345.84 
    9300    306.22766   -2913.0387   -2457.5483    10314.129 
    9310    308.54147   -2917.2131   -2458.2811    10242.611 
    9320    311.32482   -2923.9961    -2460.924     10132.05 
    9330    311.97751   -2924.0436   -2460.0007    10136.676 
    9340    309.72319   -2918.0449   -2457.3551    10266.198 
    9350    305.73132   -2911.5364   -2456.7842    10431.695 
    9360    300.70387   -2904.8418   -2457.5675     10615.02 
    9370    296.05407   -2897.5387   -2457.1807    10797.785 
    9380    292.92478   -2891.7581   -2456.0547    10937.082 
    9390    290.92738   -2888.3481   -2455.6157    11024.946 
    9400    291.86308   -2888.2652    -2454.141    11005.897 
    9410    294.88298    -2893.176   -2454.5599     10874.39 
    9420     298.2497   -2898.1424   -2454.5186    10726.923 
    9430    302.09226   -2904.2677   -2454.9284    10554.108 
    9440    305.09121   -2909.3385   -2455.5384    10399.205 
    9450    307.62511   -2913.6183   -2456.0492    10256.994 
    9460    310.09129   -2918.8989   -2457.6616    10110.163 
    9470    313.37938   -2923.5557   -2457.4277    9960.3597 
    9480    315.70762    -2926.597   -2457.0059    9848.4901 
    9490    316.55678    -2927.243   -2456.3888    9799.1402 
    9500    316.24245   -2925.4285   -2455.0418     9799.499 
    9510    314.20817   -2920.7724   -2453.4116    9868.7014 
    9520    312.15106   -2917.2636   -2452.9626    9924.1328 
    9530    311.21322   -2915.6645   -2452.7584     9935.591 
    9540    312.54255   -2916.9811   -2452.0977    9870.7061 
    9550    315.45493   -2918.9162   -2449.7009    9767.0254 
    9560    319.53371   -2926.4223   -2451.1402    9581.0436 
    9570    324.30917   -2933.5795   -2451.1942    9394.1706 
    9580    327.83922     -2937.37    -2449.734    9271.3461 
    9590    330.18943   -2942.8276   -2451.6959    9168.8261 
    9600    331.50394   -2945.3632   -2452.2762    9118.2761 
    9610    330.09021   -2943.6313   -2452.6471     9166.286 
    9620    327.53518   -2939.0361   -2451.8524    9265.1637 
    9630      324.188   -2933.9585   -2451.7534    9393.0099 
    9640    319.03731   -2928.3436   -2453.7997    9559.2357 
    9650    314.72131   -2924.0853   -2455.9612    9700.3671 
    9660    310.57301   -2917.0392   -2455.0854    9870.2256 
    9670    307.70348   -2914.9374   -2457.2518    9961.4935 
    9680    305.48149   -2911.5254   -2457.1449    10060.334 
    9690    303.96503   -2907.4521   -2455.3272    10147.323 
    9700    306.08419   -2909.2806   -2454.0036    10094.235 
    9710    309.46022   -2915.4965   -2455.1979    9951.6556 
    9720    312.92639   -2920.2724   -2454.8181    9825.0395 
    9730    315.83318   -2924.9806   -2455.2027    9695.6531 
    9740    316.28165   -2924.9714   -2454.5264    9664.7464 
    9750     314.5834   -2921.0807   -2453.1617    9723.2506 
    9760    312.82746   -2921.5489   -2456.2418    9735.9048 
    9770     312.1185   -2920.0214   -2455.7688    9756.1047 
    9780    310.88569    -2920.433   -2458.0141    9764.1704 
    9790    307.48378   -2915.1591   -2457.8003    9875.1854 
    9800    301.06875   -2905.6934   -2457.8765    10098.605 
    9810    293.55044   -2893.5625   -2456.9285    10387.693 
    9820    286.58546   -2881.9079   -2455.6337    10681.219 
    9830    281.30136   -2873.9228   -2455.5084    10900.757 
    9840    279.23619   -2870.7962   -2455.4535    11006.583 
    9850    279.95403   -2874.6201   -2458.2097    10978.013 
    9860    283.77903   -2880.6459   -2458.5461    10859.634 
    9870    288.80775   -2886.8486   -2457.2689    10708.504 
    9880     293.2561   -2893.5523   -2457.3561    10566.519 
    9890    295.59951   -2898.9796   -2459.2977    10484.808 
    9900    296.37674   -2899.5775   -2458.7395    10493.012 
    9910    297.52139   -2900.6228   -2458.0823    10487.061 
    9920    299.42216   -2903.3612   -2457.9934    10443.693 
    9930    300.17662   -2905.2642   -2458.7742    10427.006 
    9940     298.8565   -2902.3545   -2457.8281    10504.308 
    9950    296.40901   -2900.1564   -2459.2705    10583.299 
    9960    295.73453   -2900.6014   -2460.7187    10584.743 
    9970    297.36769   -2902.2425   -2459.9306    10516.411 
    9980    299.38364    -2904.129   -2458.8185    10423.426 
    9990    300.52479   -2906.2885   -2459.2806    10336.287 
   10000    302.42231   -2910.0915   -2460.2612    10212.469 
   10010    305.31462   -2915.3146   -2461.1823    10046.196 
   10020     309.4979   -2922.0278   -2461.6731    9852.0405 
   10030    314.79597   -2929.5086   -2461.2734    9640.4407 
   10040    319.22279   -2936.8004   -2461.9806    9447.8261 
   10050    320.72816   -2939.2166   -2462.1578    9377.5488 
   10060    320.15063   -2938.0937   -2461.8939    9391.3497 
   10070    317.06452   -2933.3265   -2461.7171    9505.5134 
   10080    311.33695   -2927.0157   -2463.9256    9676.3032 
   10090    306.48454   -2920.0552   -2464.1827    9843.7226 
   10100    303.10263   -2916.1336   -2465.2914     9949.099 
   10110    300.59248   -2912.7556    -2465.647    10034.471 
   10120    298.31579   -2909.9064   -2466.1842    10109.472 
   10130    298.49158    -2909.003   -2465.0194    10117.189 
   10140    300.66626    -2910.497   -2463.2787    10061.058 
   10150    301.44002   -2911.0587   -2462.6895    10041.788 
   10160    299.88005    -2909.617   -2463.5681     10092.54 
   10170    297.19609   -2905.8318   -2463.7752    10194.301 
   10180    293.93011   -2900.4147    -2463.216    10333.821 
   10190    290.54977   -2895.2938    -2463.123    10475.864 
   10200    286.63895   -2888.2875   -2461.9338    10652.219 
   10210    283.68144   -2884.1198   -2462.1652    10771.836 
   10220    282.11851   -2880.4795   -2460.8496    10852.811 
   10230    283.02345   -2883.9666   -2462.9906    10794.951 
   10240    284.32252   -2886.4773   -2463.5691    10734.698 
   10250    286.04989   -2888.2944   -2462.8169    10666.181 
   10260    288.30213   -2890.5568   -2461.7292    10572.943 
   10270    290.62386   -2892.0345   -2459.7536    10483.609 
   10280    292.93034     -2895.46   -2459.7483    10376.996 
   10290    294.65198   -2901.5322   -2463.2597     10254.68 
   10300    295.99033   -2905.0422   -2464.7791    10167.432 
   10310    296.19492   -2903.6626   -2463.0951    10158.593 
   10320    295.71748     -2903.06   -2463.2026    10158.142 
   10330    295.59626   -2903.1422   -2463.4652    10145.738 
   10340    296.16883   -2905.4611   -2464.9324    10098.303 
   10350    298.60728   -2908.0004   -2463.8447    10017.209 
   10360    302.86398   -2915.0777   -2464.5904    9845.4631 
   10370    307.80004    -2921.395   -2463.5658    9676.4768 
   10380    313.16662   -2929.0707   -2463.2591    9489.0707 
   10390    317.45121   -2936.5956    -2464.411    9319.2174 
   10400    318.35147   -2939.1138   -2465.5901    9268.7394 
   10410     317.2041   -2936.4999   -2464.6828    9312.1668 
   10420     314.0518   -2931.0339   -2463.9056    9434.8461 
   10430    311.47131    -2928.756   -2465.4661    9501.8884 
   10440    312.26777    -2930.863   -2466.3884    9460.2259 
   10450    313.46297   -2931.7819   -2465.5295    9420.1781 
   10460    312.66439   -2930.6636    -2465.599    9443.1811 
   10470    310.87726   -2927.5404    -2465.134    9506.9052 
   10480    309.28563   -2924.9658   -2464.9268    9569.8115 
   10490    306.68633   -2920.8518   -2464.6791    9676.3242 
   10500    305.07674   -2920.0233   -2466.2448    9725.4524 
   10510    305.35248   -2919.2539   -2465.0652    9738.6842 
   10520     306.5797   -2922.2481    -2466.234    9693.4869 
   10530    308.12966   -2924.6424   -2466.3229    9646.6046 
   10540    307.57276   -2923.9832    -2466.492    9675.2216 
   10550    305.15666   -2920.5446   -2466.6472    9769.0353 
   10560    302.72279   -2918.7419   -2468.4647    9839.3049 
   10570    299.78428   -2914.5851   -2468.6787     9946.363 
   10580    296.59031   -2909.5129   -2468.3573    10061.693 
   10590    294.68005   -2908.0728   -2469.7585    10095.809 
   10600    296.29704    -2910.453   -2469.7336    10012.509 
   10610    300.16093   -2915.1707    -2468.704    9852.4739 
   10620    304.50246    -2920.211   -2467.2867    9680.5385 
   10630    308.78467   -2925.3315   -2466.0377    9517.0293 
   10640    312.84323   -2931.2484   -2465.9178    9363.7397 
   10650    315.90343   -2934.0711   -2464.1887    9267.7427 
   10660    316.17982   -2933.6997   -2463.4062    9270.4366 
   10670    313.19532   -2928.8512   -2462.9969    9386.4681 
   10680     309.2333   -2925.5031   -2465.5419    9502.9635 
   10690    304.61608   -2919.9458   -2466.8525    9659.8652 
   10700    300.63621   -2914.6325   -2467.4589    9805.4297 
   10710    297.22744   -2909.9781   -2467.8748    9924.0424 
   10720    295.91968    -2908.365   -2468.2069    9958.0609 
   10730    297.27523   -2911.0702   -2468.8958    9884.3087 
   10740    300.78456   -2915.2551   -2467.8608    9745.0657 
   10750    305.25826    -2922.054   -2468.0055    9559.2729 
   10760    310.20467   -2929.4441   -2468.0382    9363.5246 
   10770    314.29848   -2936.6411   -2469.1459    9187.6732 
   10780    315.20533   -2937.1929   -2468.3488    9150.7579 
   10790    313.16325   -2934.3919   -2468.5853    9222.1747 
   10800    308.93101   -2926.6039   -2467.0924    9396.5121 
   10810    304.78697   -2921.2095   -2467.8619     9554.954 
   10820    300.98453   -2914.6091   -2466.9175    9726.3299 
   10830    297.41981   -2909.3648   -2466.9754    9881.8567 
   10840    295.61575   -2906.8875   -2467.1815    9972.1561 
   10850    296.01978   -2909.1541   -2468.8471     9966.652 
   10860    298.72735    -2912.942   -2468.6077    9896.5033 
   10870    302.34666   -2918.1479   -2468.4301    9783.4505 
   10880    306.17017   -2924.7657   -2469.3608    9649.5534 
   10890     310.7814   -2930.6488    -2468.385    9510.4335 
   10900     314.6106   -2937.8689   -2469.9095    9356.1669 
   10910    317.70451   -2942.1286   -2469.5672    9249.2198 
   10920    320.96214   -2947.2166   -2469.8097    9115.1753 
   10930    323.68307   -2951.1021    -2469.648    9007.7932 
   10940    325.69208   -2953.3242   -2468.8819    8929.3394 
   10950    325.03511   -2952.9457   -2469.4806    8923.2645 
   10960     321.7177   -2948.9286   -2470.3979    9002.3448 
   10970    317.07955   -2942.3277   -2470.6959    9137.5932 
   10980    313.62202   -2938.5806   -2472.0916    9210.5017 
   10990     312.5952   -2937.4588   -2472.4971     9213.089 
   11000    313.13816   -2937.7103    -2471.941     9173.883 
   11010    315.29669   -2940.3846   -2471.4046    9085.6616 
   11020    319.58378   -2945.5598   -2470.2031    8937.0443 
   11030     322.1331   -2948.4441   -2469.2956    8837.4415 
   11040    322.65949   -2949.5632   -2469.6317     8803.096 
   11050    322.35768   -2951.5406    -2472.058    8779.8757 
   11060    321.44027   -2949.9528   -2471.8348    8812.4631 
   11070    319.74744    -2949.518   -2473.9179    8846.8473 
   11080    317.19927   -2947.6381   -2475.8282    8913.6122 
   11090    313.54351   -2942.1404   -2475.7682    9040.6826 
   11100    312.32298   -2938.5027    -2473.946    9093.2566 
   11110    314.68135      -2941.5   -2473.4354    9009.4748 
   11120    320.07178   -2947.2414   -2471.1589    8837.5028 
   11130    324.64534   -2953.9641   -2471.0788    8669.2249 
   11140    327.39367   -2955.6779   -2468.7046    8589.9051 
   11150    327.09506   -2954.7742   -2468.2451    8602.3208 
   11160    325.13471   -2950.4922    -2466.879    8687.3836 
   11170    324.15422   -2950.2934   -2468.1385    8714.9201 
   11180    325.15719   -2952.6582   -2469.0115    8684.5401 
   11190    326.77391   -2955.5126   -2469.4612    8637.7583 
   11200    326.23592    -2956.135   -2470.8838    8652.7741 
   11210    322.84753   -2953.0048   -2472.7936    8757.0657 
   11220    318.62023   -2946.6198   -2472.6964     8914.528 
   11230     314.4445   -2941.0573   -2473.3449    9061.4468 
   11240    313.75637   -2937.9743   -2471.2855    9113.4284 
   11250    314.23851   -2938.6828   -2471.2769    9098.3083 
   11260    314.98215   -2939.8037   -2471.2916    9068.6966 
   11270    316.27452   -2941.2102   -2470.7758    9023.1505 
   11280    318.07989   -2943.3591   -2470.2394    8961.1882 
   11290    318.83415   -2945.3328   -2471.0911    8919.1596 
   11300    317.56564   -2942.8189   -2470.4641    8967.2738 
   11310    316.70972   -2941.3647    -2470.283    8999.9551 
   11320     316.7949   -2942.4215   -2471.2131    8992.3775 
   11330    317.81466   -2943.5967   -2470.8715    8968.4636 
   11340    318.93375   -2944.6904   -2470.3006    8940.0944 
   11350     318.5305   -2945.9713   -2472.1813    8939.2273 
   11360     315.6505   -2942.6164   -2473.1102    9038.8581 
   11370    311.98194    -2937.671   -2473.6215    9172.6065 
   11380    306.11801   -2927.3003   -2471.9729    9415.8044 
   11390    299.40767   -2919.5332    -2474.187    9637.6906 
   11400     293.5984   -2911.5941   -2474.8888    9846.6097 
   11410    290.56566   -2908.8834    -2476.689    9937.0231 
   11420    291.33178   -2906.4181   -2473.0842    9950.0937 
   11430     294.9898   -2911.2779   -2472.5029    9828.0446 
   11440    300.72006   -2921.1881   -2473.8898    9606.3856 
   11450    307.47632   -2929.8043   -2472.4566     9385.867 
   11460    313.49141   -2937.7651   -2471.4704     9172.966 
   11470    317.41448   -2942.0062   -2469.8763    9050.8768 
   11480    320.99089    -2947.991   -2470.5413    8916.6855 
   11490    323.55519   -2951.8437   -2470.5799    8827.9674 
   11500    325.82791   -2956.6003   -2471.9559    8737.8836 
   11510    326.96788   -2957.4591   -2471.1192    8715.7504 
   11520    326.90834   -2957.6728   -2471.4214    8720.0043 
   11530    325.18915   -2954.4572   -2470.7629    8788.5623 
   11540    321.46476   -2950.8927   -2472.7382    8898.0076 
   11550    318.03848   -2948.4941   -2475.4359    8992.4617 
   11560    314.91212   -2943.6234   -2475.2155    9121.8515 
   11570    312.76963   -2940.5722   -2475.3511    9212.2386 
   11580    310.97046   -2936.5325   -2473.9875    9314.7981 
   11590    306.24174   -2929.9028   -2474.3914    9507.5253 
   11600    300.00721   -2921.8844   -2475.6464    9732.5009 
   11610    293.40038   -2914.6504   -2478.2396    9954.3992 
   11620      288.096   -2907.9077   -2479.3867    10138.661 
   11630    285.84106   -2904.4657   -2479.2988     10229.37 
   11640    285.27061    -2902.648   -2478.3296    10267.458 
   11650    285.99526   -2903.6083   -2478.2121    10245.533 
   11660    287.07192   -2904.9663   -2477.9686      10210.9 
   11670    287.91161   -2905.7734   -2477.5267    10183.362 
   11680    289.05741   -2909.9034   -2479.9524    10106.604 
   11690    291.67533   -2913.5568   -2479.7118    9996.1112 
   11700    294.76208   -2919.7344   -2481.2981    9833.4214 
   11710    299.77627   -2925.4056   -2479.5111    9636.2774 
   11720    307.53198    -2936.269   -2478.8385    9325.6739 
   11730     316.6145    -2946.643   -2475.7029    8999.5397 
   11740    325.49079    -2958.146   -2474.0031    8671.5408 
   11750    332.17444   -2967.0234   -2472.9391    8421.7278 
   11760    332.68452   -2967.0928   -2472.2498    8371.7049 
   11770    327.15933   -2960.5014   -2473.8766    8504.0011 
   11780    319.59679   -2947.8679   -2472.4919     8751.626 
   11790    312.20695    -2938.792   -2474.4078    8978.5735 
   11800     306.0604   -2928.9578   -2473.7161    9218.7843 
   11810    301.97812   -2925.2389   -2476.0693    9345.0125 
   11820    299.78637   -2922.7484   -2476.8389    9433.8062 
   11830    299.08698    -2923.363   -2478.4938    9455.2372 
   11840    300.29462   -2922.5846   -2475.9192    9453.7512 
   11850    302.98609      -2926.5   -2475.8312     9366.151 
   11860    307.26579    -2931.045   -2474.0104    9245.8855 
   11870    310.28081   -2937.5716   -2476.0524    9103.5271 
   11880    310.54997   -2938.1691   -2476.2496    9087.9619 
   11890    309.58796   -2938.1148   -2477.6261    9110.0801 
   11900    308.66958   -2939.3494   -2480.2268    9120.5359 
   11910    308.54617   -2939.2163   -2480.2773    9131.6402 
   11920    309.20827   -2940.0917   -2480.1678    9118.3925 
   11930    311.27921   -2942.0499   -2479.0456    9066.3827 
   11940    313.57025   -2945.7579    -2479.346    8984.0132 
   11950    313.90446   -2947.6056   -2480.6966    8957.9736 
   11960    313.04711   -2944.7219    -2479.088    9017.3897 
   11970    312.96326   -2943.4623   -2477.9532    9050.7032 
   11980    313.86185   -2944.1499   -2477.3042    9044.4396 
   11990    313.99304   -2946.4735   -2479.4327     9026.346 
   12000    312.62383   -2944.7815   -2479.7772    9072.1871 
   12010    311.39898   -2942.8084    -2479.626    9112.5631 
   12020     312.1904   -2944.2981   -2479.9385      9078.53 
   12030     315.1275    -2946.943   -2478.2148    8994.5331 
   12040    318.61059   -2951.3219   -2477.4128    8883.2143 
   12050    320.99949   -2954.6621   -2477.1997    8803.3336 
   12060    320.51119   -2953.5532   -2476.8171    8824.1918 
   12070    317.41738   -2949.7572   -2477.6229    8922.4308 
   12080    312.91439   -2944.6621   -2479.2257    9061.8601 
   12090    307.89386   -2938.3286   -2480.3598    9224.2033 
   12100    301.99796   -2929.0999   -2479.9008    9442.6686 
   12110    297.52971   -2924.8265   -2482.2736    9560.3744 
   12120    295.59966   -2921.9101    -2482.228    9621.5565 
   12130    296.46605   -2923.2443   -2482.2735    9579.6139 
   12140    299.17371   -2926.5644   -2481.5662    9481.2625 
   12150    303.19823   -2933.3593   -2482.3749    9324.9437 
   12160    304.54582   -2936.6074   -2483.6186    9251.3698 
   12170    301.39207   -2932.6253   -2484.3275    9362.5513 
   12180    295.80832   -2925.8553   -2485.8628    9537.1164 
   12190    291.97362   -2920.3609   -2486.0723    9673.9443 
   12200    289.76014    -2915.388   -2484.3917    9775.4648 
   12210    289.49644   -2913.7659   -2483.1619    9795.8173 
   12220    290.73586    -2915.531   -2483.0834    9741.7352 
   12230     293.6719    -2920.825   -2484.0103    9603.0008 
   12240    298.20249   -2927.0853   -2483.5317    9415.0567 
   12250    304.40788   -2936.7706   -2483.9869    9152.5234 
   12260    309.55622    -2943.774   -2483.3326    8939.6551 
   12270    314.32115   -2951.6339    -2484.105    8732.0038 
   12280    318.35559   -2956.3675   -2482.8376    8582.1881 
   12290    321.82569   -2959.6199   -2480.9286    8474.6781 
   12300    324.21748   -2963.1096   -2480.8607    8392.2964 
   12310    324.81294   -2964.8449   -2481.7102    8370.5805 
   12320    323.67329   -2962.8171   -2481.3776    8425.8416 
   12330    320.60554    -2958.679   -2481.8025    8542.5306 
   12340    315.98998    -2953.518   -2483.5069    8697.2833 
   12350    309.84544   -2947.0409   -2486.1693    8890.5434 
   12360    303.51193   -2937.9129   -2486.4619    9113.3369 
   12370    297.55375   -2929.1369   -2486.5483     9339.363 
   12380    293.67488   -2924.5102   -2487.6911     9462.224 
   12390    292.37122    -2923.752    -2488.872    9497.9376 
   12400    292.46107   -2925.0372   -2490.0235    9481.7197 
   12410    294.49841   -2926.2868   -2488.2428    9426.7718 
   12420     300.2939   -2932.4744     -2485.81    9248.1025 
   12430     306.2504   -2942.2086   -2486.6844    9009.1651 
   12440    312.77052   -2950.7613   -2485.5388    8789.4211 
   12450    318.51571   -2958.5298   -2484.7618    8595.7311 
   12460    322.39677    -2965.013   -2485.4722    8451.1413 
   12470    323.54636   -2965.7537    -2484.503    8414.6486 
   12480    322.22247   -2964.1929   -2484.9114    8442.4637 
   12490    319.12189   -2960.2419   -2485.5722    8529.2686 
   12500    314.91939   -2954.1855   -2485.7668    8661.0206 
   12510    310.55655   -2949.2405   -2487.3111    8790.1785 
   12520    306.62046   -2943.7328   -2487.6581    8924.4097 
   12530    303.51495   -2940.3058   -2488.8503    9025.1975 
   12540    300.73734   -2935.2091   -2487.8851    9152.6281 
   12550    295.77724   -2928.0784   -2488.1322    9343.9144 
   12560    292.03136    -2923.421   -2489.0465    9483.7507 
   12570    288.60809   -2919.0522   -2489.7695    9625.5057 
   12580    285.23234    -2915.856   -2491.5945    9758.5889 
   12590    283.19555   -2911.8523   -2490.6203    9869.7443 
   12600    282.86221   -2911.4782   -2490.7421    9897.2029 
   12610    284.30688   -2913.7915   -2490.9065     9844.496 
   12620    286.69138   -2918.6217     -2492.19    9735.3371 
   12630    290.41255   -2925.2614   -2493.2947    9570.0802 
   12640    296.16837   -2933.7144   -2493.1864    9346.6011 
[...]
   96980     292.7008   -2904.1122   -2468.7419    10366.689 
   96990    295.87438   -2909.3543   -2469.2636    10236.703 
   97000    298.09125    -2912.195   -2468.8069    10140.387 
   97010    297.58987   -2910.7863   -2468.1439     10156.58 
   97020    293.96251    -2905.422   -2468.1751    10279.452 
   97030      289.592   -2897.2743   -2466.5281    10449.153 
   97040    285.62739   -2893.1971    -2468.348    10552.442 
   97050    284.24792   -2890.4642    -2467.667    10586.766 
   97060     284.3057   -2890.4955   -2467.6124    10557.879 
   97070    285.13821   -2891.9745    -2467.853    10492.558 
   97080    287.17413   -2895.4445   -2468.2947    10374.876 
   97090    289.81861   -2899.9161   -2468.8329    10222.129 
   97100    291.75196   -2903.2505   -2469.2915    10093.866 
   97110    292.84454   -2905.9532   -2470.3691    9994.9878 
   97120    295.41963   -2909.0486   -2469.6343    9867.4972 
   97130     297.8569   -2913.4478   -2470.4083    9726.5765 
   97140     301.5044   -2919.7077   -2471.2428      9553.73 
   97150    306.23935    -2928.955   -2473.4472     9328.593 
   97160    311.32434   -2936.8839   -2473.8126    9118.5709 
   97170    316.02168   -2945.5665   -2475.5082    8915.8613 
   97180    319.80472   -2952.0444   -2476.3592     8767.926 
   97190    321.91424   -2953.8499   -2475.0269    8706.5148 
   97200    321.22466   -2952.1379   -2474.3406    8752.9126 
   97210    318.92805   -2947.9371   -2473.5558    8862.7966 
   97220    315.30789   -2941.1072   -2472.1107    9033.7831 
   97230    309.73532   -2932.1821   -2471.4742    9264.1924 
   97240    302.75299    -2921.229   -2470.9069    9531.6351 
   97250    297.14023   -2913.4068   -2471.4332    9733.0816 
   97260    294.34575   -2909.9128   -2472.0958    9833.2344 
   97270    293.81991   -2908.3302   -2471.2953    9865.4278 
   97280    296.49823   -2912.0208   -2471.0022    9773.7988 
   97290    301.40334   -2919.9095   -2471.5949    9606.4813 
   97300    306.28414   -2926.4094    -2470.835    9454.4746 
   97310    307.98913   -2930.3231   -2472.2126    9397.0035 
   97320     308.2745    -2931.669    -2473.134      9402.67 
   97330    306.87728   -2928.7133   -2472.2566    9494.6478 
   97340    304.07019   -2925.5137   -2473.2324     9633.335 
   97350    299.51514   -2920.1841   -2474.6781    9814.7248 
   97360    296.67973    -2916.999   -2475.7104     9943.911 
   97370    295.22434    -2913.951   -2474.8272    10032.827 
   97380    297.45597   -2917.6069   -2475.1637    9963.4985 
   97390    301.50715   -2923.6618   -2475.1928     9823.273 
   97400    305.46029   -2929.4102   -2475.0611    9665.9716 
   97410    308.26185   -2934.7611    -2476.245    9538.4333 
   97420    308.79876   -2935.4849   -2476.1702    9499.4106 
   97430    306.87568   -2931.8512   -2475.3969    9556.5151 
   97440    303.47762   -2929.2569   -2477.8569    9628.3614 
   97450    300.63535   -2923.5528   -2476.3805    9734.1052 
   97460    301.33671   -2921.8523   -2473.6368    9733.6668 
   97470    305.74011   -2928.9445   -2474.1793    9567.2293 
   97480    309.35868   -2933.0588   -2472.9112     9458.844 
   97490    309.85331   -2934.3554   -2473.4721    9438.3129 
   97500    306.96292   -2929.5313   -2472.9472    9545.2749 
   97510    302.25447   -2923.1385   -2473.5579    9715.4079 
   97520    298.81451   -2920.2296   -2475.7656      9814.46 
   97530    298.09601   -2919.8889   -2476.4936    9840.5599 
   97540    298.15199   -2919.9247   -2476.4462    9843.7377 
   97550    298.06153   -2921.0527   -2477.7088    9828.3192 
   97560    299.83639    -2923.359   -2477.3751    9757.2543 
   97570    302.88307   -2927.2353   -2476.7197    9627.7702 
   97580    303.86751    -2927.726   -2475.7461     9578.647 
   97590    302.37267   -2925.8544    -2476.098    9617.9857 
   97600    298.41945   -2920.9091   -2477.0328    9738.5075 
   97610    294.91711   -2915.5272   -2476.8604    9865.0582 
   97620    292.15201   -2914.6288   -2480.0748    9916.8755 
   97630     292.7889   -2914.2086   -2478.7073    9898.8647 
   97640     295.7108   -2918.9681   -2479.1207    9773.7076 
   97650    298.27928    -2922.212   -2478.5442    9678.0729 
   97660    300.47406   -2927.5174    -2480.585    9566.5598 
   97670    299.52355   -2926.7524   -2481.2338    9590.5635 
   97680    295.47651   -2922.2915   -2482.7926    9719.8721 
   97690    292.19656    -2919.177   -2484.5568    9820.5274 
   97700    288.96395   -2914.9168   -2485.1048    9948.4486 
   97710    286.23409   -2909.9067   -2484.1552    10073.522 
   97720    282.74994   -2904.9218   -2484.3527    10208.662 
   97730    279.83465   -2899.2513   -2483.0184    10339.297 
   97740    277.72662   -2896.1263    -2483.029    10423.828 
   97750    277.82017   -2897.1042   -2483.8677    10411.003 
   97760    279.27724   -2900.0432   -2484.6395    10343.505 
   97770    281.40456   -2902.3625   -2483.7945    10264.142 
   97780    283.49042   -2905.3933   -2483.7227    10176.402 
   97790    286.80359   -2909.7928   -2483.1942    10051.458 
   97800    289.54686   -2915.1183   -2484.4393    9929.8865 
   97810    292.80375   -2918.7885   -2483.2651    9825.0043 
   97820    294.21981   -2921.0099   -2483.3802    9774.6162 
   97830    294.81248   -2920.9877   -2482.4765    9766.4226 
   97840    294.71477   -2921.2374   -2482.8715    9763.1599 
   97850    293.58895   -2919.5569   -2482.8656    9805.5997 
   97860    290.54491   -2917.5516   -2485.3881    9905.0808 
   97870    287.11614   -2910.2035     -2483.14    10072.644 
   97880    285.09881   -2907.0162   -2482.9533    10168.842 
   97890    286.42441   -2908.7824   -2482.7478    10144.734 
   97900    287.59147     -2910.44   -2482.6695    10119.531 
   97910    286.52151   -2909.4523   -2483.2732    10173.931 
   97920    284.23883   -2905.2251   -2482.4414    10284.866 
   97930    281.99077   -2902.1399      -2482.7    10388.559 
   97940     279.3134   -2898.6547   -2483.1972    10501.322 
   97950    277.29666   -2896.7232   -2484.2654    10579.492 
   97960    277.81499   -2897.0378    -2483.809    10568.776 
   97970    281.98197    -2901.871   -2482.4442    10423.348 
   97980    288.40149   -2912.3114   -2483.3361    10157.352 
   97990    295.80788   -2925.2116   -2485.2199    9850.2185 
   98000    301.21523   -2932.2708    -2484.236    9628.7506 
   98010    303.88584   -2935.4567   -2483.4496    9502.0093 
   98020    304.48497   -2936.2113    -2483.313    9440.1973 
   98030    304.24796   -2935.4162   -2482.8704    9416.2876 
   98040    304.41111   -2935.7084   -2482.9199     9383.637 
   98050    305.60063   -2935.6019   -2481.0442    9347.2173 
   98060    308.41182   -2938.8188   -2480.0796    9258.0291 
   98070    312.41681   -2943.7393    -2479.043    9129.9363 
   98080    314.61186   -2948.4673    -2480.506    9043.1208 
   98090    312.94213   -2944.6088   -2479.1311    9124.1714 
   98100    307.85501   -2935.2642   -2477.3532     9328.586 
   98110    301.80423   -2926.2433   -2477.3324    9551.2592 
   98120    296.59881    -2919.296   -2478.1277    9733.7048 
   98130    293.37516   -2914.6318   -2478.2584     9857.138 
   98140    293.76821   -2915.6352   -2478.6772    9840.9886 
   98150    296.10906   -2920.8958    -2480.456    9732.3819 
   98160    298.95668   -2926.2855   -2481.6101    9614.2418 
   98170    300.36395   -2928.2401   -2481.4715    9562.4013 
   98180    302.12518   -2931.8776   -2482.4893    9490.2634 
   98190    302.80325   -2933.2371   -2482.8402    9462.6228 
   98200    300.96623   -2930.0609   -2482.3964    9534.3596 
   98210    298.50465   -2926.7678   -2482.7648    9613.3677 
   98220    295.39834   -2922.7406   -2483.3579    9712.3537 
   98230     296.3529   -2924.3082   -2483.5057    9667.6165 
   98240    300.56863   -2929.9952   -2482.9221    9509.4082 
   98250    306.29048   -2936.1724   -2480.5886    9320.1779 
   98260    312.03988   -2943.7512   -2479.6155    9117.3777 
   98270    315.81952   -2950.2869   -2480.5294    8961.6452 
   98280     317.8828   -2953.7393   -2480.9127    8872.1118 
   98290     317.2069   -2952.4633   -2480.6421      8895.15 
   98300     316.0448   -2950.3387    -2480.246    8943.6393 
   98310    317.25873   -2951.9171   -2480.0188    8913.4908 
   98320    319.72176   -2955.2201   -2479.6582    8841.7338 
   98330    322.57382   -2957.2911   -2477.4869    8779.5035 
   98340    323.79518   -2957.3742   -2475.7534    8757.5993 
   98350    322.71383    -2956.324   -2476.3116    8785.1356 
   98360    320.78877   -2953.1617   -2476.0127    8854.2276 
   98370    317.69118   -2949.4459   -2476.9044    8953.5846 
   98380    314.43078   -2945.0409    -2477.349    9072.5531 
   98390    310.64157   -2939.2424   -2477.1866    9215.9004 
   98400    308.24398   -2936.7758   -2478.2863     9287.563 
   98410    309.15145   -2938.4875   -2478.6482    9251.7127 
   98420    312.18762   -2945.3625    -2481.007    9112.6258 
   98430    314.61629   -2948.5818   -2480.6139    9022.1599 
   98440    315.94791   -2950.3974   -2480.4489    8970.9956 
   98450    317.20717   -2951.9479   -2480.1263    8928.5008 
   98460     317.2471   -2953.8632   -2481.9822    8909.5705 
   98470    314.30643   -2949.6016   -2482.0946    9020.3532 
   98480    309.26459   -2942.9998   -2482.9922    9207.1154 
   98490     302.8709   -2935.9896   -2485.4921     9417.218 
   98500    298.02198    -2927.534   -2484.2489    9618.4455 
   98510    294.67704   -2921.9903   -2483.6805    9760.6561 
   98520    294.71821   -2923.0079   -2484.6369    9754.2504 
   98530    297.42932     -2927.86   -2485.4564    9644.7203 
   98540    299.78817   -2929.4654   -2483.5532    9575.7681 
   98550    302.64687   -2933.2749   -2483.1106    9468.7225 
   98560    305.13081   -2937.8504   -2483.9914    9365.8256 
   98570     307.6301   -2942.7167   -2485.1402    9263.9531 
   98580    307.35816   -2941.7114   -2484.5395    9281.8167 
   98590    304.52515   -2935.1711    -2482.213    9406.3806 
   98600    300.96686   -2931.9519   -2484.2865    9514.8936 
   98610    296.73538   -2926.8258   -2485.4544    9650.9004 
   98620    292.62749    -2922.645   -2487.3838    9774.3287 
   98630    291.08147   -2920.5887    -2487.627    9816.1628 
   98640    290.89054   -2921.4213   -2488.7436    9800.2496 
   98650    292.00443   -2921.9597   -2487.6252    9758.4999 
   98660    294.86617   -2925.5534   -2486.9623    9643.3234 
   98670    296.81903   -2929.3121   -2487.8163    9532.1976 
   98680    298.75618   -2932.7689   -2488.3917     9424.319 
   98690    299.69173   -2933.8544   -2488.0857    9362.9289 
   98700    299.70573   -2934.0941   -2488.3045    9332.9485 
   98710    299.24203   -2933.6324   -2488.5325    9324.9853 
   98720    298.61861    -2933.569   -2489.3965    9324.8431 
   98730    297.36595   -2931.5173    -2489.208    9374.7843 
   98740     295.2332   -2928.7071   -2489.5701    9455.6203 
   98750    293.47812   -2927.0396   -2490.5132    9527.9651 
   98760     290.9947   -2923.1658   -2490.3333    9648.6328 
   98770    290.20744   -2920.9959   -2489.3344    9719.0897 
   98780    288.83074   -2918.7939   -2489.1801    9808.1977 
   98790    284.47948   -2913.7813   -2490.6396    9983.6038 
   98800    279.63936   -2904.9977   -2489.0554    10205.393 
   98810    275.42888   -2899.8772   -2490.1976    10363.525 
   98820    274.33311   -2899.3364   -2491.2867    10391.942 
   98830    277.55606   -2902.6759   -2489.8323    10281.193 
   98840    283.67706    -2911.614   -2489.6658    10037.317 
   98850    290.37398   -2922.0658   -2490.1565    9766.0331 
   98860     295.9535   -2930.2497   -2490.0413    9552.2528 
   98870      297.742   -2933.4944   -2490.6257    9455.3863 
   98880    295.51691   -2929.8678   -2490.3088    9518.3434 
   98890    291.50204   -2924.3699   -2490.7828    9645.7511 
   98900    287.92073   -2919.5639   -2491.3036    9759.0159 
   98910     285.1643   -2914.8127   -2490.6524    9874.8947 
   98920    285.81866   -2915.8861   -2490.7525    9858.1254 
   98930    289.96727   -2920.6502   -2489.3459    9726.7333 
   98940    296.30168   -2928.5947   -2487.8684    9530.0095 
   98950    303.27606   -2936.9244   -2485.8242     9314.273 
   98960    309.45024   -2947.3046   -2487.0208    9089.5942 
   98970    313.17232   -2951.4283   -2485.6082    8976.8899 
   98980    315.55382   -2954.9186   -2485.5562    8894.8655 
   98990    317.07906   -2956.1765   -2484.5454    8855.2714 
   99000    318.64232   -2958.7058   -2484.7495    8799.4809 
   99010    319.81765   -2962.1458   -2486.4413    8743.1809 
   99020     320.8889   -2964.6879   -2487.3899    8699.1833 
   99030    321.09984    -2966.253   -2488.6413    8680.8452 
   99040    320.49618   -2968.7677   -2492.0539    8663.9964 
   99050    318.53754   -2965.3543   -2491.5538    8729.4058 
   99060    314.78441   -2958.2402   -2490.0222    8862.4366 
   99070    310.47709   -2952.6517   -2490.8406    8983.2217 
   99080    307.44417    -2949.087   -2491.7871    9054.5297 
   99090    306.41429   -2948.5384   -2492.7703    9056.4856 
   99100     305.2876   -2947.3938   -2493.3016    9069.2016 
   99110    303.61392   -2944.1238   -2492.5211    9113.2813 
   99120    302.35287   -2942.5929    -2492.866    9127.6395 
   99130     301.0649   -2942.2774   -2494.4662    9131.0844 
   99140    299.78774   -2941.0701   -2495.1586    9150.2624 
   99150    299.23709   -2940.0779   -2494.9855    9158.0761 
   99160    299.71707   -2940.4651   -2494.6586    9135.7803 
   99170    299.82122   -2941.5147   -2495.5533    9119.3242 
   99180    298.13074   -2940.9353   -2497.4884    9165.2678 
   99190     294.2645   -2936.2723   -2498.5762    9297.8965 
   99200    290.04777   -2929.3494   -2497.9253    9468.2806 
   99210    285.55616   -2923.1941    -2498.451     9634.908 
   99220    282.27695   -2917.4129   -2497.5473    9771.7949 
   99230    279.89063   -2913.6098   -2497.2937    9857.7653 
   99240    280.87724   -2915.8405   -2498.0569    9800.8953 
   99250    284.14158   -2921.1613   -2498.5222    9645.3277 
   99260    289.28302    -2929.855   -2499.5684    9415.5752 
   99270    295.55033   -2938.0084   -2498.3997    9165.9903 
   99280    301.99263   -2948.4023   -2499.2111    8881.1221 
   99290    306.48658    -2954.865   -2498.9894    8680.6571 
   99300    308.49641   -2956.2784   -2497.4134    8588.7328 
   99310    308.96298   -2956.0903   -2496.5312    8546.4093 
   99320    308.89654   -2956.5539   -2497.0937    8516.8635 
   99330    308.59337   -2958.1763    -2499.167    8489.5804 
   99340    307.87562   -2957.8324   -2499.8907     8499.186 
   99350    306.57929   -2955.5382   -2499.5247    8545.2785 
   99360    303.78138   -2950.6123   -2498.7605    8655.2734 
   99370     300.2765    -2946.422   -2499.7835    8771.7784 
   99380    297.61769   -2943.8966   -2501.2128    8849.7211 
   99390    299.02659   -2946.0601   -2501.2807    8795.5764 
   99400    302.76258   -2951.2393   -2500.9029    8657.1527 
   99410     307.7321    -2958.604   -2500.8758    8464.8725 
   99420    313.61393   -2966.6955   -2500.2186     8246.681 
   99430    319.04134    -2971.882   -2497.3322    8069.9421 
   99440    321.94997     -2978.76   -2499.8839    7915.8931 
   99450    320.92083   -2976.0701   -2498.7247    7941.5703 
   99460    317.11933   -2972.4027   -2500.7117    8035.4539 
   99470     312.9597   -2967.7574   -2502.2536    8160.5361 
   99480    309.80308   -2964.4152   -2503.6066    8267.6518 
   99490    306.91423   -2961.5579   -2505.0463    8372.4014 
   99500    304.56965   -2958.9419   -2505.9177    8458.5429 
   99510    303.56446   -2959.3594   -2507.8302    8479.1235 
   99520    304.15133   -2960.3391    -2507.937    8454.7557 
   99530    306.58543   -2964.0968   -2508.0742    8357.9886 
   99540      310.272   -2970.3311    -2508.825    8208.5309 
   99550     314.8051   -2976.9362   -2508.6874    8039.8443 
   99560    318.51153    -2982.717   -2508.9552    7892.9484 
   99570    320.53843   -2984.3843   -2507.6076    7823.4836 
   99580    320.24921    -2984.371   -2508.0245    7817.6135 
   99590    317.77882   -2982.1315   -2509.4595    7880.2258 
   99600    314.03104   -2977.4112   -2510.3138     8000.059 
   99610    310.41506   -2973.8246   -2512.1057    8109.5146 
   99620    308.29328   -2972.0247   -2513.4618    8174.3309 
   99630    307.71527    -2973.624   -2515.9208    8171.3102 
   99640    308.11582   -2975.6565   -2517.3575    8137.0605 
   99650    308.63467   -2976.3888   -2517.3181      8102.42 
   99660     308.7146   -2974.3433   -2515.1537    8095.1412 
   99670    307.82901   -2972.7878   -2514.9154    8093.2026 
   99680    305.52985   -2970.5483   -2516.0958    8122.0849 
   99690    302.18585   -2966.6321   -2517.1535    8184.7509 
   99700    299.49009   -2964.5812   -2519.1124     8216.621 
   99710    298.10634   -2961.7944   -2518.3838    8240.6386 
   99720    298.94818   -2964.2897   -2519.6269    8172.2638 
   99730    301.43896   -2969.4952   -2521.1276    8054.7082 
   99740    305.03576   -2974.0557   -2520.3381    7928.9837 
   99750    309.14196   -2980.4083   -2520.5831    7783.5547 
   99760    312.27817    -2984.535   -2520.0449    7682.8383 
   99770    313.51408   -2987.4423   -2521.1139    7630.2425 
   99780    311.77193   -2985.6084   -2521.8713    7687.9304 
   99790    307.98759   -2980.9165   -2522.8083    7817.5699 
   99800    303.12803   -2975.9464   -2525.0664    7971.2152 
   99810    298.52217   -2970.0898   -2526.0607    8133.3543 
   99820    294.80793   -2965.3296   -2526.8251     8266.771 
   99830    292.16254   -2962.9342   -2528.3646     8354.462 
   99840    289.65874   -2958.6385   -2527.7931    8452.9701 
   99850    287.53179   -2956.7734   -2529.0917    8510.5174 
   99860    285.54571   -2955.5251   -2530.7975    8553.5687 
   99870    283.12507   -2950.3365   -2529.2094    8646.4618 
   99880    281.78013   -2949.9972   -2530.8706    8660.9461 
   99890    281.82544   -2951.7093   -2532.5154    8626.1565 
   99900    282.50158   -2953.5197     -2533.32    8573.1333 
   99910     281.3749    -2952.987   -2534.4632    8578.2768 
   99920     279.0856    -2950.983   -2535.8643    8615.6328 
   99930    278.24588   -2952.6441   -2538.7744    8582.1517 
   99940    279.25085   -2956.9395    -2541.575    8488.7902 
   99950     282.7564   -2961.0092   -2540.4305    8361.6877 
   99960    287.62439   -2966.7204   -2538.9009     8195.292 
   99970    291.99235   -2972.3258   -2538.0093    8042.4158 
   99980    293.78745   -2973.7732   -2536.7867    7980.3945 
   99990    292.78714   -2973.8884   -2538.3897    7981.1995 
  100000    289.85843   -2970.5188   -2539.3764    8054.9286 
Loop time of 32.5519 on 4 procs for 100000 steps with 500 atoms

Performance: 265.423 ns/day, 0.090 hours/ns, 3072.021 timesteps/s
42.1% CPU use with 4 MPI tasks x no OpenMP threads

MPI task timing breakdown:
Section |  min time  |  avg time  |  max time  |%varavg| %total
---------------------------------------------------------------
Pair    | 7.9124     | 8.1295     | 8.2627     |   5.1 | 24.97
Bond    | 0.0058293  | 0.0063325  | 0.0066922  |   0.4 |  0.02
Neigh   | 0.16549    | 0.17192    | 0.18218    |   1.5 |  0.53
Comm    | 19.076     | 19.231     | 19.351     |   2.5 | 59.08
Output  | 0.3027     | 0.36655    | 0.49106    |  12.2 |  1.13
Modify  | 3.2128     | 3.433      | 3.5509     |   7.4 | 10.55
Other   |            | 1.214      |            |       |  3.73

Nlocal:    125 ave 129 max 122 min
Histogram: 1 0 1 0 1 0 0 0 0 1
Nghost:    874.5 ave 877 max 872 min
Histogram: 1 0 0 0 1 0 1 0 0 1
Neighs:    3682 ave 3757 max 3625 min
Histogram: 1 0 1 0 1 0 0 0 0 1

Total # of neighbors = 14728
Ave neighs/atom = 29.456
Ave special neighs/atom = 0
Neighbor list builds = 634
Dangerous builds = 0

#write_data      lj-out.data
Total wall time: 0:00:32
