LAMMPS (30 Nov 2016)
# LJ particles
variable        T0 equal 300.0
variable        TL equal 250.0
variable        TH equal 350.0

units           real
atom_style      full
pair_style      lj/cut 5.0

read_data       "lj.data"
  orthogonal box = (1.06874 1.06874 1.06874) to (23.9313 23.9313 23.9313)
  1 by 2 by 2 MPI processor grid
  reading atoms ...
  500 atoms
  reading velocities ...
  500 velocities
  0 = max # of 1-2 neighbors
  0 = max # of 1-3 neighbors
  0 = max # of 1-4 neighbors
  1 = max # of special neighbors

thermo          10
thermo_style    custom step temp pe etotal press

timestep        1.0

fix             fxnvt all nvt temp ${T0} ${T0} 1000.0
fix             fxnvt all nvt temp 300 ${T0} 1000.0
fix             fxnvt all nvt temp 300 300 1000.0
fix             fxSTMD all stmd 10000 constant 1.01 ${TL} ${TH} -3500 -2250 2 10000 100000 ${T0} 0
fix             fxSTMD all stmd 10000 constant 1.01 250 ${TH} -3500 -2250 2 10000 100000 ${T0} 0
fix             fxSTMD all stmd 10000 constant 1.01 250 350 -3500 -2250 2 10000 100000 ${T0} 0
fix             fxSTMD all stmd 10000 constant 1.01 250 350 -3500 -2250 2 10000 100000 300 0

run             40000
STMD: STAGE= 1 #bins= 626  binsize 2
Neighbor list info ...
  1 neighbor list requests
  update every 1 steps, delay 10 steps, check yes
  max neighbors/atom: 2000, page size: 100000
  master list distance cutoff = 7
  ghost atom cutoff = 7
  binsize = 3.5 -> bins = 7 7 7
STMD STAGE 1
STMD STAGE1 DIG: istep= 0  TSC1= 10000 T= 1.166667
Memory usage per processor = 5.37517 Mbytes
Step Temp PotEng TotEng Press 
       0    301.05109   -2869.3094   -2421.5187    11727.584 
      10    302.62079   -2873.0663   -2422.9408    11648.219 
      20    303.80921   -2874.9585   -2423.0653    11597.179 
      30    304.08003   -2876.7318   -2424.4358    11563.755 
      40    303.21073    -2876.056    -2425.053     11578.82 
      50    301.53421   -2871.7161   -2423.2068    11652.898 
      60    299.49982   -2868.4535   -2422.9703    11724.136 
      70     297.7578   -2865.5722   -2422.6801     11784.33 
      80     296.7654   -2863.8558   -2422.4397    11812.776 
      90    296.81905   -2863.0303   -2421.5345    11805.897 
     100    297.97791   -2863.4281   -2420.2086    11758.951 
     110    299.79125   -2865.7979   -2419.8811     11674.46 
     120    301.89425   -2867.7949   -2418.7501    11585.718 
     130     303.7415   -2871.1268   -2419.3344    11486.669 
     140    305.41647   -2874.9973   -2420.7135    11389.723 
     150    307.36047   -2878.3394   -2421.1639    11300.753 
     160    309.77103   -2882.7933   -2422.0323    11197.611 
     170    311.66928   -2885.1322   -2421.5478    11140.888 
     180    312.26793     -2886.56   -2422.0851     11131.44 
     190    311.18213   -2884.9848    -2422.125    11198.444 
     200      308.411   -2881.1294   -2422.3914    11332.458 
     210    304.64843   -2874.8861   -2421.7446    11512.258 
     220    301.52097   -2870.7094   -2422.2198    11650.985 
     230    299.81358   -2866.9033   -2420.9533    11745.855 
     240    299.57818   -2866.2713   -2420.6715    11760.462 
     250    300.43662   -2868.3786   -2421.5019    11707.533 
     260    302.12762   -2872.3902   -2422.9983    11602.059 
     270     303.9609    -2873.257   -2421.1382    11520.401 
     280     305.5308   -2874.4315   -2419.9776    11436.487 
     290    306.98072   -2874.3404   -2417.7298    11370.352 
     300    308.54661   -2876.8797     -2417.94    11280.465 
     310    310.06398    -2879.637   -2418.4403    11199.787 
     320    310.41557   -2881.4543   -2419.7347    11169.516 
     330    309.13728   -2881.3029   -2421.4846    11215.167 
     340    306.00203   -2877.6053   -2422.4504    11357.921 
     350    301.27422   -2868.8848   -2420.7623    11600.397 
     360    295.85713   -2859.5067   -2419.4416    11872.064 
     370    290.96519   -2851.4657    -2418.677    12118.413 
     380    287.98768    -2845.688   -2417.3281      12290.1 
     390    287.86825    -2845.787   -2417.6048    12320.783 
     400    290.91161    -2853.494    -2420.785    12182.979 
     410    296.23121   -2861.5875    -2420.966    11974.882 
     420    302.28512   -2871.3295   -2421.7033    11723.498 
     430    307.52276   -2878.8806   -2421.4638    11508.168 
     440    310.78134   -2885.2303   -2422.9666    11345.956 
     450    311.80166   -2887.9919   -2424.2106     11275.57 
     460    310.99752   -2888.0372    -2425.452     11282.01 
     470    308.97067   -2885.4779   -2425.9075    11355.481 
     480    305.89977   -2880.3478   -2425.3451    11492.327 
     490    302.16425    -2875.954   -2426.5076    11644.783 
     500    298.46682   -2869.7178    -2425.771    11820.489 
     510    294.92435   -2864.6526    -2425.975    11976.943 
     520    291.69699   -2858.7159   -2424.8387    12129.285 
     530      289.317    -2854.381   -2424.0439    12235.584 
     540     288.5288   -2851.4822   -2422.3174    12282.819 
     550    289.82391   -2852.5829   -2421.4918    12234.818 
     560    293.26251   -2858.3117   -2422.1059    12086.526 
     570    297.85268   -2867.8432   -2424.8099    11868.972 
     580    302.27485   -2875.3018   -2425.6908    11675.793 
     590    306.12748    -2878.817   -2423.4755    11540.313 
     600    308.61093   -2883.8896   -2424.8543    11413.742 
     610    309.57087   -2884.7263   -2424.2631    11371.135 
     620     308.7246    -2883.765   -2424.5606    11392.799 
     630    306.15006   -2879.6659   -2424.2909    11495.723 
     640    302.02197   -2871.9706   -2422.7358    11676.751 
     650    297.16309   -2862.1916    -2420.184    11897.792 
     660    292.43095   -2852.1678   -2417.1989    12115.923 
     670    288.70868   -2843.8187   -2414.3864    12288.356 
     680    286.51076   -2840.9746   -2414.8116     12358.08 
     690    286.14116   -2841.6934   -2416.0801    12339.071 
     700    287.72021   -2844.5221   -2416.5601     12247.03 
     710    290.82124   -2852.4241   -2419.8495    12059.204 
     720    294.55376   -2858.9129   -2420.7865    11869.906 
     730    298.36018   -2863.2766   -2419.4884    11703.506 
     740    301.37998    -2867.483   -2419.2031    11560.547 
     750    303.06999   -2870.6999   -2419.9062    11464.461 
     760    303.07002   -2871.3936   -2420.5999    11441.765 
     770    301.42128   -2868.6375   -2420.2962    11504.704 
     780    298.30531   -2862.9369   -2419.2304    11644.281 
     790    294.16342   -2857.0177   -2419.4719    11817.156 
     800    289.86874   -2850.3375   -2419.1798    12001.618 
     810    286.74657   -2843.0787   -2416.5649    12160.914 
     820    285.98821   -2840.3531   -2414.9673    12209.241 
     830    288.07168   -2843.1477   -2414.6629    12123.483 
     840    293.12834   -2851.9151   -2415.9089    11897.054 
     850    299.34604    -2863.706   -2418.4514    11600.333 
     860     304.9552   -2872.6273   -2419.0295    11345.108 
     870    309.34575   -2879.8278   -2419.6995    11137.577 
     880    312.13691     -2882.59     -2418.31    11013.914 
     890    315.11608   -2888.4764   -2419.7651    10866.136 
     900    318.64209    -2894.155   -2420.1991    10719.413 
     910    320.35056   -2897.5164   -2421.0192     10647.21 
     920    319.06124   -2894.1583   -2419.5789    10723.541 
     930    315.10348    -2887.622   -2418.9295    10895.416 
     940    310.58797   -2880.7296   -2418.7535    11079.643 
     950    306.60817   -2873.8705    -2417.814    11249.105 
     960    304.46125   -2870.3422   -2417.4792    11335.673 
     970    304.94624   -2871.8617   -2418.2773    11304.559 
     980    308.51843   -2879.4596   -2420.5619    11138.919 
     990    313.36874   -2887.6956   -2421.5834     10939.23 
    1000     317.6186   -2894.6198   -2422.1862    10772.606 
    1010    319.48238   -2897.3353   -2422.1294    10717.474 
    1020    318.61103   -2896.3741   -2422.4643    10777.941 
    1030    314.27252   -2888.2411   -2420.7846    11005.502 
    1040    307.62073   -2876.9165    -2419.354    11321.172 
    1050    301.33554   -2865.5516   -2417.3378    11635.974 
    1060    296.92578   -2857.0061   -2415.3515    11885.128 
    1070    294.22602   -2853.4123   -2415.7734    12036.772 
    1080    292.93789   -2852.1099   -2416.3869    12122.382 
    1090    292.75861   -2852.9671   -2417.5108    12151.166 
    1100    293.53798   -2855.0323   -2418.4169    12137.494 
    1110    294.54299   -2857.9913   -2419.8809    12097.701 
    1120    294.41797   -2857.4991   -2419.5747     12107.94 
    1130    292.96571   -2854.4922   -2418.7279    12162.605 
    1140    291.26835   -2851.9612   -2418.7216    12205.513 
    1150    290.36337   -2849.7164   -2417.8228    12217.253 
    1160    290.95503   -2849.4083   -2416.6348    12165.333 
    1170    293.38938   -2855.9212   -2419.5267    11990.714 
    1180    297.58177   -2862.5516   -2419.9213    11770.281 
    1190    301.50594   -2870.0113   -2421.5441    11541.492 
    1200      304.155   -2876.1629   -2423.7554    11361.231 
    1210    305.68725   -2879.1689   -2424.4823    11246.519 
    1220    306.24263   -2880.8719   -2425.3592     11182.78 
    1230    306.25465   -2881.9388   -2426.4083    11159.269 
    1240    305.71974   -2881.3109    -2426.576    11188.603 
    1250    303.70472   -2879.9963   -2428.2585    11276.311 
    1260    299.38874   -2872.8854   -2427.5673    11488.977 
    1270     293.9912   -2864.4616   -2427.1719    11746.127 
    1280    288.90931   -2854.8222   -2425.0915    12007.473 
    1290    286.04472   -2849.2244   -2423.7546      12166.3 
    1300    285.30447   -2846.3653   -2421.9966    12238.847 
    1310    286.29826   -2848.9726   -2423.1256     12199.15 
    1320    288.81159   -2852.5604    -2422.975    12105.175 
    1330    292.51708   -2857.5658   -2422.4688     11960.04 
    1340    295.90698   -2862.3712    -2422.232    11816.245 
    1350    297.72276   -2865.1738   -2422.3338    11724.397 
    1360    298.15337   -2865.5089   -2422.0284    11691.837 
    1370    298.01872   -2864.6204   -2421.3402    11691.176 
    1380    297.84713   -2863.4079   -2420.3828    11702.221 
    1390    297.44087   -2863.7679   -2421.3471    11707.128 
    1400    296.54973   -2864.1215   -2423.0263    11723.488 
    1410    295.01159   -2860.6887   -2421.8813    11794.509 
    1420     292.8743   -2857.4974    -2421.869    11871.084 
    1430    291.18537   -2854.3887   -2421.2725    11932.484 
    1440    290.84734   -2854.4829   -2421.8695    11924.235 
    1450    292.41338   -2857.7177    -2422.775    11838.022 
    1460      295.408    -2863.212    -2423.815    11696.566 
    1470    298.72039   -2869.4798   -2425.1559    11547.416 
    1480    300.80812   -2872.3902   -2424.9609    11466.388 
    1490    300.86472   -2873.0104   -2425.4969    11459.789 
    1500    298.54807   -2867.7421   -2423.6745    11573.272 
    1510    294.43884   -2862.0284   -2424.0729     11732.82 
    1520    290.17759   -2854.3608   -2422.7436    11922.804 
    1530    287.43774   -2850.6276   -2423.0857    12039.621 
    1540    286.81358    -2850.095   -2423.4815    12074.754 
    1550    288.36487   -2852.7075   -2423.7866     12025.19 
    1560    292.00586   -2861.4687   -2427.1321    11860.054 
    1570    296.36744   -2869.1583   -2428.3342    11688.821 
    1580    299.60286   -2874.6597   -2429.0231    11560.802 
    1590    300.01596    -2876.636    -2430.385     11521.81 
    1600    297.42324   -2872.4593   -2430.0647    11606.209 
    1610    294.32732   -2866.5538   -2428.7642    11719.479 
    1620    292.78075   -2862.5576   -2427.0684    11780.307 
    1630    292.56499   -2862.0752    -2426.907    11778.627 
    1640    293.06719   -2862.2926   -2426.3774    11755.108 
    1650    293.87899   -2865.2017    -2428.079    11693.986 
    1660    295.82039   -2868.8808   -2428.8704    11594.865 
    1670     297.5718   -2871.6791   -2429.0636    11497.181 
    1680    299.50277   -2875.6374   -2430.1498    11378.856 
    1690    301.91006   -2880.7927   -2431.7244    11232.005 
    1700    304.54472   -2885.2261   -2432.2389    11093.422 
    1710    307.07517   -2890.3467   -2433.5956    10951.215 
    1720     307.9908   -2892.0503   -2433.9374    10886.098 
    1730     306.5791   -2888.4438   -2432.4306    10937.848 
    1740    303.59381   -2883.8189   -2432.2461    11036.863 
    1750     300.2946   -2879.0903   -2432.4249    11149.888 
    1760    297.49548   -2872.8798   -2430.3778    11272.512 
    1770    296.83989   -2870.6815   -2429.1546    11309.559 
    1780    297.30759   -2869.4502   -2427.2277    11316.714 
    1790    297.49784   -2869.5855     -2427.08    11315.608 
    1800    296.73536   -2870.4534    -2429.082    11325.129 
    1810    295.64053   -2868.4111   -2428.6682    11368.042 
    1820    294.91342   -2866.7218   -2428.0604    11394.053 
    1830    295.79619   -2868.4075   -2428.4331      11341.5 
    1840    298.17031    -2872.089   -2428.5833     11233.34 
    1850    302.39566   -2881.1448   -2431.3541    11021.461 
    1860    306.32932   -2887.1167    -2431.475     10852.68 
    1870    308.79091   -2891.5775   -2432.2744    10739.676 
    1880    308.30725   -2890.2127    -2431.629    10768.709 
    1890    304.25376   -2884.2617   -2431.7073     10938.44 
    1900    297.49928   -2872.7155   -2430.2079    11237.343 
    1910    290.82012   -2862.5888   -2430.0159    11527.332 
    1920    286.75715   -2855.8454   -2429.3159    11730.151 
    1930     286.8106   -2855.7704   -2429.1614     11766.98 
    1940    290.60187    -2860.747   -2428.4988    11661.404 
    1950     295.8937   -2869.2707   -2429.1513    11470.581 
    1960    301.50939   -2878.3882   -2429.9158    11262.405 
    1970    305.67423   -2887.2173   -2432.5501     11072.69 
    1980    308.47367   -2891.0345   -2432.2033    10965.868 
    1990     309.9305   -2893.6224   -2432.6243    10902.385 
    2000    310.17286   -2894.6741   -2433.3155    10886.165 
    2010    309.28474   -2892.8391   -2432.8015    10932.252 
    2020     307.4831   -2890.3675   -2433.0097     11010.04 
    2030    305.06465   -2886.0991   -2432.3385    11125.337 
    2040    303.02584   -2880.6757   -2429.9477    11245.801 
    2050    301.00078   -2878.7257   -2431.0099    11328.551 
    2060    297.75215   -2873.2903   -2430.4065    11469.437 
    2070    294.21429   -2867.8905    -2430.269    11596.808 
    2080    290.60139   -2863.4615    -2431.214    11710.783 
    2090    287.41756   -2860.3723   -2432.8605    11798.706 
    2100    285.34431   -2855.7763   -2431.3483    11873.456 
    2110    284.58049   -2855.6897   -2432.3978    11867.821 
    2120    284.69938   -2856.8015   -2433.3328    11829.794 
    2130    285.87917   -2858.8291   -2433.6055    11758.574 
    2140    287.64621    -2860.512   -2432.6601     11678.37 
    2150    288.72043   -2863.1191   -2433.6693    11605.639 
    2160    289.08134   -2862.6839   -2432.6973     11587.53 
    2170    289.40811   -2865.0568   -2434.5841    11544.761 
    2180    290.37469   -2864.9102   -2432.9998    11519.503 
    2190    292.05749    -2867.475   -2433.0616    11448.491 
    2200    293.59101   -2870.5404    -2433.846    11365.046 
    2210    295.79481   -2873.0785   -2433.1061    11270.888 
    2220    299.47663   -2879.6368    -2434.188    11085.964 
    2230    303.23834   -2885.3075   -2434.2634    10907.593 
    2240    306.53128   -2889.9576   -2434.0156    10748.028 
    2250    308.29151   -2893.1066   -2434.5463    10641.601 
    2260    309.07768   -2893.6037    -2433.874    10588.491 
    2270     309.7502   -2893.9219   -2433.1919    10545.443 
    2280    310.73877   -2897.8875   -2435.6871    10463.908 
    2290    311.45126   -2899.7694   -2436.5093    10418.733 
    2300    311.08777   -2899.2653   -2436.5458    10430.385 
    2310    309.24392   -2896.4724   -2436.4955    10507.264 
    2320    306.24263   -2891.3487    -2435.836    10642.303 
    2330    302.57903   -2885.3385   -2435.2752    10812.514 
    2340    299.39264   -2880.9649   -2435.6411    10957.575 
    2350    296.46791   -2876.2407   -2435.2672    11109.162 
    2360    293.59247   -2873.5648   -2436.8682    11229.469 
    2370    292.59872   -2873.2041   -2437.9857    11278.814 
    2380    293.89648   -2875.0997   -2437.9509     11251.56 
    2390    296.16765   -2878.4787   -2437.9518    11179.467 
    2400    297.75703   -2882.1272   -2439.2362     11117.87 
    2410    298.92184   -2886.4198   -2441.7962    11057.622 
    2420    299.12985   -2886.7137   -2441.7808    11058.201 
    2430    297.98632   -2884.4396   -2441.2075    11110.887 
    2440    295.95004   -2880.8327   -2440.6295    11188.379 
    2450    294.24245   -2878.8209   -2441.1575    11237.044 
    2460    294.10623   -2879.3628   -2441.9021    11216.521 
    2470    297.02693   -2885.6808   -2443.8757    11062.384 
    2480    302.58847   -2892.9362   -2442.8587    10830.701 
    2490    308.46465     -2903.33   -2444.5122    10555.867 
    2500    311.85944     -2909.18   -2445.3128     10379.32 
    2510    311.85399   -2909.5975   -2445.7383    10348.777 
    2520    308.49324   -2903.9513    -2445.091    10473.129 
    2530    302.61491   -2894.4663   -2444.3496    10697.693 
    2540     296.5891   -2883.7778    -2442.624    10941.858 
    2550     291.9267   -2877.9337   -2443.7149    11107.901 
    2560    288.69258   -2873.8032   -2444.3949    11220.513 
    2570    288.83335    -2875.308   -2445.6903    11194.521 
    2580    291.61215   -2880.0788   -2446.3278    11072.128 
    2590    294.73356   -2885.3877   -2446.9938     10937.11 
    2600    296.96621   -2889.0007    -2447.286    10835.943 
    2610    297.63566   -2889.5062   -2446.7957    10800.857 
    2620    296.82477   -2887.6913    -2446.187    10824.199 
    2630    295.01806   -2886.0633   -2447.2463    10870.437 
    2640    292.32948    -2882.924    -2448.106    10958.204 
    2650    290.06241   -2879.7543   -2448.3085    11039.506 
    2660    288.38551   -2875.7424   -2446.7909    11122.259 
    2670    288.01219   -2877.3626   -2448.9663    11111.387 
    2680    288.87599   -2880.7466   -2451.0655    11051.148 
    2690    291.29355   -2884.7568   -2451.4797    10951.277 
    2700    295.19461   -2893.1406   -2454.0609    10769.224 
    2710    299.38369   -2900.6887   -2455.3782    10589.767 
    2720    302.43134    -2904.592   -2454.7483    10475.206 
    2730    303.22061   -2908.0395   -2457.0218    10425.525 
    2740    301.08304   -2903.4525   -2455.6143     10542.83 
    2750    295.90265   -2895.1858   -2455.0531    10772.527 
    2760    289.43803   -2888.0677   -2457.5506    11018.133 
    2770    283.55385   -2878.5953   -2456.8305    11279.321 
    2780    278.93304   -2871.9377   -2457.0459    11479.521 
    2790    276.02218   -2867.7941   -2457.2321    11606.981 
    2800    274.10613   -2865.0509   -2457.3388    11677.226 
    2810    273.75957   -2864.5445   -2457.3479    11666.783 
    2820    275.39376   -2867.0273      -2457.4    11563.859 
    2830    280.06222   -2874.3249   -2457.7535    11329.192 
    2840    286.95385   -2886.3297   -2459.5076    10989.232 
    2850    294.30849   -2897.6831   -2459.9215    10650.995 
    2860    298.81979   -2905.4066   -2460.9348    10411.734 
    2870    298.83557   -2904.1804   -2459.6851    10383.063 
    2880    294.86926   -2898.1259   -2459.5302    10513.431 
    2890    289.47655   -2891.3141   -2460.7396    10697.851 
    2900    285.17379   -2884.8293   -2460.6549    10873.127 
    2910    282.79179   -2879.0085   -2458.3772    11012.032 
    2920    281.34243   -2876.5895    -2458.114    11101.609 
    2930    279.75499   -2872.8155   -2456.7011    11208.032 
    2940    277.72783   -2868.9834   -2455.8844    11316.775 
    2950    274.65563   -2863.2727   -2454.7433     11460.84 
    2960    270.79006    -2859.221   -2456.4413    11598.279 
    2970    267.37611   -2853.5655   -2455.8638    11732.434 
    2980    266.14689   -2852.2154   -2456.3421    11766.886 
    2990    267.98875    -2855.152    -2456.539     11682.24 
    3000    272.58491   -2861.3109   -2455.8615    11503.228 
    3010    278.00802   -2870.7149    -2457.199    11266.272 
    3020    282.64342   -2878.4155   -2458.0048    11064.969 
    3030     285.0662   -2882.9948   -2458.9804    10943.096 
    3040    286.11168   -2883.8644    -2458.295    10890.088 
    3050    287.58985   -2884.3227   -2456.5546    10834.459 
    3060    290.68057   -2889.3979   -2457.0326    10699.933 
    3070    294.16673    -2896.181   -2458.6303    10537.534 
    3080    296.56201   -2897.9583   -2456.8448     10452.24 
    3090    297.43468   -2899.1349   -2456.7233    10404.054 
    3100    297.77471   -2899.8377   -2456.9204    10369.739 
    3110    298.67029   -2901.1496   -2456.9002     10313.54 
    3120    300.29406   -2903.8516   -2457.1869    10224.194 
    3130    302.23064   -2908.9398   -2459.3947    10103.358 
    3140    304.46649   -2913.7448    -2460.874    9980.5794 
    3150    306.03803   -2916.3582   -2461.1498    9899.4692 
    3160    306.26074   -2917.9862   -2462.4466    9864.9006 
    3170    304.90132   -2916.3855   -2462.8679    9910.2343 
    3180    301.74803   -2910.5287   -2461.7013    10054.812 
    3190    297.09861   -2902.5632   -2460.6515    10260.341 
    3200    291.74419   -2893.3457   -2459.3983    10495.496 
    3210    287.19544   -2886.4257   -2459.2443    10684.442 
    3220      285.448   -2884.8821   -2460.2998    10753.261 
    3230    286.43076   -2887.5091   -2461.4651    10714.862 
    3240    289.41138   -2890.1949   -2459.7174    10628.506 
    3250     292.2909   -2894.1996   -2459.4391    10518.062 
    3260    294.10547   -2896.1957    -2458.736    10449.325 
    3270    294.27739   -2896.6429   -2458.9275    10432.924 
    3280    293.07831   -2895.9029   -2459.9712    10462.249 
    3290    291.09947   -2894.4204    -2461.432    10519.427 
    3300     288.6037   -2889.6674   -2460.3913    10626.631 
    3310    286.75296   -2885.5089   -2458.9857      10706.7 
    3320    285.94582   -2884.7492   -2459.4264    10724.851 
    3330     286.1049   -2884.7506   -2459.1912    10712.086 
    3340    287.20556   -2886.8829   -2459.6864    10658.681 
    3350    289.72356   -2890.5179    -2459.576    10565.151 
    3360    292.10779   -2893.7871   -2459.2989    10478.747 
    3370    293.12786   -2894.3903   -2458.3848    10461.128 
    3380    292.82908   -2894.3018   -2458.7407    10487.267 
    3390    291.50972   -2891.9363   -2458.3376    10568.022 
    3400    289.61374   -2888.6205    -2457.842    10673.229 
    3410    289.06905   -2890.5346   -2460.5663     10685.72 
    3420     289.5217   -2892.9818   -2462.3402    10663.741 
    3430    290.59086   -2895.9315   -2463.6996    10617.232 
    3440    292.80172   -2900.7354    -2465.215    10516.347 
    3450    294.68021   -2903.3708   -2465.0563    10436.981 
    3460    295.13702   -2902.4024   -2463.4085    10427.788 
    3470    293.93954   -2901.8344   -2464.6216    10454.702 
    3480    290.91778    -2895.686   -2462.9678    10582.435 
    3490    287.39001   -2888.8871   -2461.4162      10729.3 
    3500    284.62776   -2883.8767   -2460.5145    10840.529 
    3510    283.35902   -2880.3759   -2458.9008    10910.627 
    3520    283.01785   -2880.0175   -2459.0499    10929.411 
    3530    283.11705   -2880.0123   -2458.8972    10935.784 
    3540    283.77832   -2882.6258   -2460.5271    10902.881 
    3550     285.7637   -2884.7255   -2459.6737    10850.222 
    3560    288.59164   -2890.1012    -2460.843    10745.368 
    3570    290.60408   -2894.5052   -2462.2537    10661.257 
    3580    291.70346   -2895.5741   -2461.6873     10633.08 
    3590    292.71986   -2898.7269   -2463.3283    10580.451 
    3600     292.9624   -2899.2845   -2463.5252    10569.764 
    3610    291.64762   -2895.6081   -2461.8044    10634.187 
    3620    289.08359   -2891.2164   -2461.2264    10736.693 
    3630    285.90639   -2884.6069   -2459.3428    10876.439 
    3640    284.08841   -2882.5577   -2459.9977    10940.954 
    3650     283.2897   -2882.4476   -2461.0756    10961.388 
    3660    283.15922    -2882.133   -2460.9551    10965.562 
    3670    283.54028   -2882.0229   -2460.2782    10951.215 
    3680    284.73389   -2883.5456   -2460.0255    10897.743 
    3690    288.09906   -2889.5614   -2461.0359    10744.515 
    3700    292.22956   -2898.1468   -2463.4774    10533.517 
    3710    296.30877   -2904.5395   -2463.8027    10340.778 
    3720    298.94415   -2908.9193   -2464.2625    10191.568 
    3730    300.06035   -2910.2389   -2463.9218    10106.961 
    3740    300.25694   -2909.5247   -2462.9153    10070.695 
    3750     300.0402    -2909.575   -2463.2879     10044.77 
    3760    299.26165   -2907.8608   -2462.7318    10061.711 
    3770    297.24134   -2904.7367   -2462.6127    10131.839 
    3780    294.46081   -2900.2304   -2462.2422    10239.693 
    3790    292.28535   -2895.6895   -2460.9372    10338.125 
    3800    291.58636   -2895.7823   -2462.0697    10361.937 
    3810    291.95815   -2896.6113   -2462.3456    10359.545 
    3820    292.73935   -2898.9713   -2463.5437    10331.833 
    3830    293.33986   -2899.7381   -2463.4173    10324.209 
    3840    293.82735   -2898.5016   -2461.4557    10340.105 
    3850    294.92194     -2901.72    -2463.046     10296.16 
    3860    296.85727   -2903.6532   -2462.1005    10252.689 
    3870    298.13717   -2906.6412   -2463.1848    10213.405 
    3880    297.37472   -2904.9932   -2462.6708    10271.297 
    3890     294.5097   -2900.1623   -2462.1014    10407.426 
    3900    291.52771    -2895.978   -2462.3526    10532.821 
    3910    289.93371   -2894.7417   -2463.4872    10597.874 
    3920    290.04045   -2893.6045   -2462.1913    10624.975 
    3930    291.69717   -2897.9542   -2464.0767    10558.544 
    3940    295.02269   -2902.8629    -2464.039    10447.806 
    3950    297.12834   -2907.6787   -2465.7228    10350.344 
    3960    296.43817   -2907.4673    -2466.538    10361.538 
    3970    293.43792   -2900.7955   -2464.3288    10490.688 
    3980    290.39331   -2895.3796   -2463.4415    10603.524 
    3990    288.77194   -2894.4055   -2464.8791     10643.84 
    4000    288.03591   -2891.5269   -2463.0953    10693.603 
    4010    288.00747   -2889.0624   -2460.6732    10726.353 
    4020      289.476   -2890.2639   -2459.6902    10685.201 
    4030    291.24251   -2893.7053   -2460.5042    10607.123 
    4040    292.52827   -2895.4499   -2460.3362     10560.29 
    4050    294.20123   -2898.9737   -2461.3717    10486.229 
    4060    296.17869   -2901.9014    -2461.358    10409.914 
    4070    297.17009   -2905.2644   -2463.2464    10344.913 
    4080    296.20476   -2903.4995   -2462.9174    10379.898 
    4090    294.22349   -2899.6894   -2462.0543     10461.65 
    4100    292.99326   -2897.8723    -2462.067    10507.714 
    4110    293.29059    -2898.142   -2461.8945    10502.091 
    4120    294.75238   -2899.2658    -2460.844    10464.304 
    4130    296.73011   -2902.5601   -2461.1966    10387.824 
    4140    297.87419   -2903.7603    -2460.695    10342.096 
    4150    297.94776   -2903.5449   -2460.3702    10327.444 
    4160    297.61144    -2902.022   -2459.3475    10331.196 
    4170    297.46198   -2900.2655   -2457.8133    10329.202 
    4180    298.30564   -2901.8916   -2458.1846    10265.466 
    4190    300.07225   -2903.1941   -2456.8593    10184.581 
    4200    302.01301   -2904.4827   -2455.2612    10099.209 
    4210      303.758   -2908.6035   -2456.7865    9984.8284 
    4220    304.67571   -2910.4482   -2457.2662    9914.8222 
    4230     304.7521   -2909.9615   -2456.6658     9892.528 
    4240    304.13179   -2909.7476   -2457.3746    9888.2041 
    4250     303.2795   -2909.9424   -2458.8372    9894.3504 
    4260    302.92036    -2909.064   -2458.4929     9910.466 
    4270    303.55898   -2909.8391   -2458.3181    9897.6056 
    4280    306.23278   -2912.7775   -2457.2795    9832.1916 
    4290    309.75711   -2918.8317   -2458.0914    9711.8301 
    4300    311.76073   -2921.5558   -2457.8353    9671.2579 
    4310    311.39426   -2921.7841   -2458.6088    9721.5053 
    4320    308.41808   -2917.1746   -2458.4261     9894.667 
    4330    302.94591   -2909.2361    -2458.627    10154.921 
    4340    297.10893     -2899.82    -2457.893     10432.55 
    4350    291.94047   -2890.2759   -2456.0365    10696.602 
    4360    287.35887    -2883.801   -2456.3764    10898.839 
    4370    284.31747   -2877.7495   -2454.8488    11060.205 
    4380    281.61116   -2872.5202   -2453.6449    11194.027 
    4390     280.6283   -2872.2218   -2454.8085    11222.055 
    4400    281.80253   -2874.8894   -2455.7295    11160.967 
    4410    283.44753   -2880.1727    -2458.566    11047.997 
    4420    284.20097   -2882.2624   -2459.5349    10986.439 
    4430    284.34649   -2880.2886   -2457.3447    10983.566 
    4440    284.19154   -2881.6212   -2458.9078    10955.319 
    4450    284.01083     -2879.35   -2456.9054    10973.017 
    4460     283.2644   -2878.3241   -2456.9897    10994.539 
    4470    281.98972    -2876.379   -2456.9407    11042.396 
    4480    280.83848   -2876.4808   -2458.7549    11067.821 
    4490    280.75818   -2876.0557   -2458.4492    11077.727 
    4500    281.99378   -2876.0474   -2456.6031    11054.565 
    4510    284.51654   -2880.6684   -2457.4716    10953.476 
    4520     289.2794   -2886.7547   -2456.4735    10792.996 
    4530    295.38343   -2893.5943   -2454.2339    10579.948 
    4540    300.87852    -2902.621    -2455.087    10356.894 
    4550    305.55618   -2909.1609   -2454.6692     10178.47 
    4560    308.70382   -2912.2302   -2453.0567    10071.147 
    4570    310.65832    -2916.101   -2454.0203    9972.5293 
    4580    310.15282   -2914.1003   -2452.7715    10001.113 
    4590    308.26296   -2909.6505   -2451.1327    10085.123 
    4600    306.56006   -2907.1351   -2451.1502    10148.572 
    4610    305.00119   -2902.8376   -2449.1715    10223.969 
    4620    305.00083   -2901.3287    -2447.663    10237.081 
    4630    305.96907   -2903.4525   -2448.3467    10190.576 
    4640    307.75238   -2906.6952   -2448.9369    10113.635 
    4650     309.1911   -2908.5082   -2448.6099    10053.985 
    4660    308.74619   -2908.9093   -2449.6727    10054.593 
    4670    306.65821   -2904.9676   -2448.8367     10145.12 
    4680    303.63954   -2900.9836   -2449.3428    10260.862 
    4690    299.40419   -2894.2242   -2448.8831    10440.437 
    4700    294.18623   -2886.7341   -2449.1544    10653.073 
    4710    289.87777   -2877.8776   -2446.7064    10851.773 
    4720    287.54235   -2874.8955   -2447.1981    10950.663 
    4730    286.90381   -2871.8609   -2445.1132    11013.738 
    4740    288.91469   -2875.8062   -2446.0675     10939.43 
    4750    293.68971   -2885.6406   -2448.7994    10748.476 
    4760    299.96285   -2895.7256   -2449.5536    10514.185 
    4770    305.19462    -2904.532   -2450.5781    10319.456 
    4780      308.531   -2909.7198   -2450.8033     10208.58 
    4790    310.11099   -2913.1882   -2451.9216    10153.213 
    4800    309.39822   -2912.5294    -2452.323    10186.526 
    4810    307.51858   -2909.6766    -2452.266    10258.109 
    4820    305.12552    -2904.049   -2450.1979      10373.9 
    4830    301.96306   -2897.4526   -2448.3054    10517.017 
    4840    298.82845    -2890.729   -2446.2443    10665.162 
    4850    296.46133   -2886.0715   -2445.1078    10769.524 
    4860     297.0575   -2887.9257   -2446.0752    10735.384 
    4870    300.45636   -2893.5205   -2446.6145    10594.794 
    4880    305.11745   -2901.3434   -2447.5043    10407.983 
    4890    310.02571   -2907.5547   -2446.4149    10240.854 
    4900    313.34587    -2910.847   -2444.7688    10139.241 
    4910    315.99803   -2915.4425   -2445.4194     10042.28 
    4920    316.09322   -2915.9767    -2445.812     10040.81 
    4930     313.7246   -2912.2584   -2445.6168    10142.735 
    4940    311.31933   -2907.9406   -2444.8767    10249.341 
    4950     308.4723   -2905.1264   -2446.2972    10353.964 
    4960    305.88138   -2901.8968   -2446.9215    10456.399 
    4970    302.26333   -2897.0767   -2447.4829    10600.572 
    4980     297.7737   -2889.5867   -2446.6709    10794.909 
    4990    293.61809   -2880.7143   -2443.9796    10993.259 
    5000    291.58019   -2878.9353   -2445.2318      11078.2 
    5010     291.7785   -2877.6682   -2443.6698     11115.01 
    5020    293.49495   -2879.6224   -2443.0709    11087.845 
    5030    295.77557   -2884.5968   -2444.6531    11015.563 
    5040    298.52215   -2889.0026   -2444.9736     10937.77 
    5050    300.20886   -2890.2293   -2443.6914      10910.4 
    5060    299.72354   -2889.0138   -2443.1977    10955.499 
    5070    297.52745   -2884.8754   -2442.3259    11065.036 
    5080    295.07832   -2880.0646    -2441.158    11184.542 
    5090    292.67101   -2875.5734   -2440.2474    11303.769 
    5100     290.0699   -2871.3594   -2439.9024    11425.452 
    5110    287.87838   -2866.8159   -2438.6186    11539.896 
    5120    286.94064    -2866.337   -2439.5345    11571.742 
    5130    287.76806   -2867.9779   -2439.9447    11531.777 
    5140    289.68844   -2869.1486    -2438.259    11463.714 
    5150    292.26539   -2871.4121   -2436.6895    11361.819 
    5160    295.48774   -2874.7436    -2435.228    11233.052 
    5170    298.27528   -2877.9326   -2434.2708    11117.151 
    5180    299.96817   -2881.1709    -2434.991    11027.473 
    5190    299.82898   -2880.1695   -2434.1966    11019.847 
    5200    298.26752   -2877.3233   -2433.6729    11062.655 
    5210    296.72134   -2875.1524   -2433.8019     11105.02 
    5220    296.54912   -2874.1621   -2433.0678    11115.358 
    5230    297.74621   -2875.3709    -2432.496    11082.182 
    5240    299.25936   -2877.6061   -2432.4805    11038.739 
    5250    300.93029    -2879.696    -2432.085    10999.894 
    5260    302.62577   -2882.4145   -2432.2816    10957.746 
    5270     304.7786   -2885.1095   -2431.7744    10906.351 
    5280    306.60705   -2887.0915   -2431.0367    10859.535 
    5290    307.90719   -2887.6021   -2429.6135      10834.4 
    5300    309.51331   -2889.2192   -2428.8416    10785.295 
    5310    311.44058   -2891.8133    -2428.569    10713.258 
    5320    312.92903   -2894.4595   -2429.0013    10649.039 
    5330    313.89021   -2896.4625   -2429.5746    10608.264 
    5340    314.63981   -2896.9317   -2428.9288    10592.986 
    5350    314.98314   -2897.0306   -2428.5171     10595.06 
    5360    314.74546   -2895.5478   -2427.3878    10631.668 
    5370    313.45656   -2892.2055   -2425.9626    10724.248 
    5380    310.93215   -2887.3472   -2424.8592    10865.768 
    5390    308.03409   -2881.3466   -2423.1692    11025.542 
    5400    305.19896   -2877.2112   -2423.2509    11157.668 
    5410    302.05841   -2872.4357   -2423.1467    11300.224 
    5420    299.36097   -2867.8592   -2422.5824    11419.941 
    5430    299.30706   -2868.7766   -2423.5801     11413.07 
    5440    302.46164   -2874.2159   -2424.3271    11282.114 
    5450     307.6275   -2885.4243   -2427.8517    11050.557 
    5460    312.85608    -2893.485   -2428.1353    10848.719 
    5470    315.21559     -2896.84   -2427.9807    10757.879 
    5480    315.30942   -2897.4741   -2428.4753    10744.373 
    5490     314.2437   -2895.2161   -2427.8024    10788.848 
    5500    312.18918   -2890.4997    -2426.142    10892.076 
    5510    309.89839   -2886.9809   -2426.0305    10987.654 
    5520    308.68357   -2885.9171   -2426.7737    11035.538 
    5530    307.97019   -2884.7147   -2426.6324    11073.166 
    5540    308.36704   -2885.3069   -2426.6343     11059.28 
    5550    309.58878   -2885.9016   -2425.4117    11017.083 
    5560    311.47699   -2888.6103   -2425.3119    10931.202 
    5570    314.77858   -2892.4613    -2424.252    10795.694 
    5580    317.91634   -2896.9164     -2424.04    10660.756 
    5590    321.23321   -2899.7498   -2421.9397    10550.334 
    5600    323.03657   -2899.6521   -2419.1597    10507.452 
    5610     322.8684   -2899.7744   -2419.5321    10511.519 
    5620     320.7816    -2897.234   -2420.0957    10590.859 
    5630    316.77781   -2889.0627   -2417.8797    10786.401 
    5640    311.33074   -2880.7727   -2417.6918    11010.732 
    5650     306.4857   -2873.2426   -2417.3684    11219.604 
    5660    302.76164   -2866.2303   -2415.8953    11393.914 
    5670    300.69041   -2863.0902    -2415.836    11482.389 
    5680    299.56665    -2861.522   -2415.9393     11522.65 
    5690    299.38637    -2860.408   -2415.0935    11529.369 
    5700    300.61514   -2860.9135   -2413.7712    11484.926 
    5710     303.2443   -2863.2066   -2412.1537    11394.371 
    5720    306.33783    -2865.304   -2409.6497    11303.892 
    5730    308.61722   -2868.4711   -2409.4264    11225.087 
    5740    309.26022   -2869.5236   -2409.5224    11206.739 
    5750    309.22601   -2870.5379   -2410.5877    11204.687 
    5760    310.14316   -2872.9626   -2411.6481    11170.194 
    5770    311.98185   -2875.5094     -2411.46    11119.109 
    5780    314.07965   -2877.1017    -2409.932    11077.422 
    5790    315.96888    -2879.586   -2409.6063    11028.498 
    5800    317.03249   -2878.9406   -2407.3788    11026.082 
    5810    316.95688   -2876.3359   -2404.8865    11063.882 
    5820    315.50357    -2874.216   -2404.9283    11128.315 
    5830    313.68898   -2870.1299   -2403.5413     11226.36 
    5840    313.38389    -2869.404   -2403.2692     11259.98 
    5850     314.1007   -2873.1158   -2405.9148    11228.029 
    5860    314.26587   -2873.0397   -2405.5931    11253.458 
    5870     312.9615   -2870.7764   -2405.2699    11339.007 
    5880    310.68448   -2865.1663   -2403.0467    11488.263 
    5890    307.51913   -2860.0749   -2402.6635    11655.945 
    5900    303.37176   -2854.0714   -2402.8289    11850.929 
    5910    298.66806   -2846.3725   -2402.1264    12073.105 
    5920     294.4387   -2839.2869   -2401.3316    12267.726 
    5930    292.32328   -2834.8993   -2400.0905    12378.485 
    5940    293.36692   -2837.4091   -2401.0481    12338.532 
    5950    297.82393   -2847.0282   -2404.0377    12146.218 
    5960    303.72705   -2857.3785   -2405.6075    11922.716 
    5970    308.06416   -2864.0464   -2405.8244    11782.174 
    5980     308.7704   -2865.8058   -2406.5332    11780.989 
    5990    305.78066      -2858.4   -2403.5744     11966.84 
    6000    300.45567   -2849.4092   -2402.5042    12222.092 
    6010    295.25303   -2841.0548   -2401.8883    12464.241 
    6020    292.86231   -2836.3515    -2400.741    12594.499 
    6030     294.6764   -2839.4934   -2401.1846    12533.946 
    6040    299.98551   -2847.3661   -2401.1604     12331.47 
    6050    306.03512   -2855.5226   -2400.3185    12097.736 
    6060    311.10689   -2864.5676   -2401.8197    11872.248 
    6070    314.64156   -2871.0786   -2403.0731    11707.994 
    6080    316.84215   -2874.2322   -2402.9535    11611.482 
    6090    317.86869   -2875.9771   -2403.1715    11559.782 
    6100    318.36732   -2877.2572     -2403.71    11525.995 
    6110    319.11227   -2878.9046   -2404.2493    11483.316 
    6120    320.48412   -2881.2141   -2404.5182    11416.814 
    6130    322.17234   -2883.2075   -2404.0006    11337.693 
    6140    324.27745   -2884.0335   -2401.6954    11256.549 
    6150    327.11682     -2885.56   -2398.9985    11151.986 
    6160    330.76873   -2888.6485   -2396.6551    11020.836 
    6170    334.52699   -2893.8463   -2396.2627    10862.492 
    6180    336.52447   -2896.4329   -2395.8783    10780.904 
    6190    337.14653   -2897.6923   -2396.2124    10752.373 
    6200    336.98449   -2898.7068   -2397.4679    10745.723 
    6210    336.71808   -2898.5301   -2397.6875     10756.55 
    6220    336.44768   -2896.0733   -2395.6328    10796.203 
    6230     334.4898   -2892.7993   -2395.2711    10890.114 
    6240    330.76057    -2886.645   -2394.6637    11050.414 
    6250    327.76378   -2884.0108    -2396.487    11153.045 
    6260    326.15039   -2881.2124   -2396.0884    11226.661 
    6270    326.47883   -2881.0711   -2395.4585      11229.5 
    6280    328.07943   -2883.8083    -2395.815    11174.682 
    6290    329.25622   -2886.1624   -2396.4187    11132.457 
    6300    328.53126    -2885.206   -2396.5406    11167.148 
    6310    325.82102   -2878.9964   -2394.3623    11307.626 
    6320    321.59167   -2871.9911   -2393.6478     11502.99 
    6330     316.1888   -2863.5627   -2393.2559     11748.02 
    6340    311.03281   -2855.2863   -2392.6486     11992.06 
    6350    307.33178   -2848.8283   -2391.6955    12184.048 
    6360    305.54142   -2847.2456   -2392.7758    12272.254 
    6370    306.04857   -2847.5385   -2392.3144    12279.138 
    6380    308.72071     -2851.98   -2392.7813    12183.914 
    6390    312.28285   -2856.8442   -2392.3471    12055.288 
    6400    314.69806   -2862.9082   -2394.8187    11930.629 
    6410    313.60157   -2863.1066    -2396.648    11942.263 
    6420    308.83007   -2853.6868   -2394.3255     12136.53 
    6430    302.69073   -2842.9933   -2392.7637    12375.741 
    6440    297.86385   -2835.7364   -2392.6865    12547.406 
    6450    296.01543   -2831.8374   -2391.5369     12616.51 
    6460     297.1863   -2834.3267   -2392.2846    12544.704 
    6470    300.64703   -2840.2281   -2393.0385    12379.804 
    6480    305.45948   -2846.3161   -2391.9683    12178.898 
    6490     311.1129   -2855.1596   -2392.4028    11932.083 
    6500     316.7589   -2862.6841   -2391.5293    11709.356 
    6510    320.35833   -2868.8997    -2392.391    11551.887 
    6520    321.09022   -2870.7376   -2393.1402    11505.959 
    6530    320.27658   -2868.3227   -2391.9355    11548.123 
    6540    319.19872    -2865.705   -2390.9211    11611.485 
    6550    318.75948   -2865.5196    -2391.389    11644.071 
    6560     318.0584   -2864.2178     -2391.13     11699.33 
    6570    315.65021   -2861.4348   -2391.9291    11810.301 
    6580     311.1984   -2853.1434   -2390.2594    12025.346 
    6590     305.7734   -2846.1105   -2391.2957    12244.627 
    6600    300.85906   -2836.8606   -2389.3556    12467.412 
    6610    298.14193   -2832.7337   -2389.2701    12575.679 
    6620    298.30937   -2833.9607   -2390.2481    12550.599 
    6630     301.5666   -2839.8215   -2391.2641     12398.41 
    6640    306.36806    -2847.145   -2391.4457    12187.872 
    6650    310.62775   -2855.5292   -2393.4939    11974.499 
    6660    313.58309   -2859.9804   -2393.5493     11837.91 
    6670    314.67589    -2861.616   -2393.5595    11779.399 
    6680    314.31638   -2860.9153   -2393.3935    11793.338 
    6690    312.84602   -2858.0712   -2392.7364    11870.099 
    6700    310.88365   -2854.7227   -2392.3069    11974.096 
    6710     308.6787   -2851.2424   -2392.1063    12093.462 
    6720    306.66524   -2848.1524   -2392.0111    12204.773 
    6730    305.46612   -2846.2818   -2391.9241    12282.898 
    6740    304.86953    -2844.792   -2391.3217    12336.525 
    6750    304.54724   -2845.4915   -2392.5005    12345.628 
    6760    304.67077   -2843.5369   -2390.3622    12358.919 
    6770    305.97067   -2844.2722    -2389.164    12304.523 
    6780    309.58887   -2850.3655   -2389.8756    12135.583 
    6790    314.99445   -2860.3472   -2391.8168    11876.829 
    6800    320.82268   -2869.7358   -2392.5364    11620.075 
    6810    325.57387   -2878.0411   -2393.7747    11400.794 
    6820    328.58601   -2880.2188    -2391.472    11297.811 
    6830    329.37529   -2879.5849   -2389.6641    11282.545 
    6840    328.03907   -2878.5123   -2390.5791    11325.708 
    6850    325.00209    -2873.226     -2389.81    11466.036 
    6860    321.05852   -2866.4487   -2388.8985    11646.535 
    6870      318.405   -2862.4247   -2388.8214    11771.215 
    6880    317.08675    -2859.693   -2388.0505    11854.665 
    6890    316.51861   -2857.7155    -2386.918    11910.069 
    6900    316.25527   -2857.3152   -2386.9095    11934.103 
    6910    315.45394   -2855.8682   -2386.6544    11972.469 
    6920    313.61833   -2855.1376   -2388.6541    12017.078 
    6930    311.07541   -2851.6145   -2388.9134    12098.959 
    6940    308.69981    -2848.229   -2389.0614    12163.812 
    6950     307.5038   -2846.2955   -2388.9069    12176.827 
    6960    308.13921   -2848.3194   -2389.9857    12102.324 
    6970    311.12599   -2852.5754    -2389.799     11953.45 
    6980    314.38899   -2857.7292   -2390.0994    11788.479 
    6990    316.28043   -2862.8497   -2392.4065    11660.317 
    7000    315.51508   -2862.6089   -2393.3042    11650.114 
    7010    312.29265   -2857.2544   -2392.7428    11753.932 
    7020    308.17526   -2849.8717   -2391.4844    11910.077 
    7030    305.66439   -2847.7246    -2393.072     11980.41 
    7040    305.79141   -2848.4325   -2393.5909    11972.213 
    7050    307.77587   -2851.7154   -2393.9221    11895.562 
    7060    310.07237   -2856.8513   -2395.6421    11786.503 
    7070    312.32023     -2862.08   -2397.5273    11677.843 
    7080    314.47984   -2864.9778   -2397.2129    11597.992 
    7090    316.85185    -2867.569   -2396.2758    11518.289 
    7100    318.79422   -2869.4644   -2395.2822    11453.707 
    7110    319.82405   -2871.7518   -2396.0378    11402.658 
    7120    319.77358   -2871.9612   -2396.3222    11391.116 
    7130    318.92762   -2869.1929   -2394.8122    11423.801 
    7140    317.38496   -2866.0902   -2394.0041    11472.665 
    7150    315.99752   -2863.6699   -2393.6475    11506.353 
    7160    314.69245   -2860.6619   -2392.5807     11544.99 
    7170    313.02279   -2857.8314   -2392.2337    11591.749 
    7180    311.25478   -2856.5686   -2393.6008    11624.618 
    7190    309.32141   -2852.6836   -2392.5914    11696.557 
    7200    307.83158   -2849.2297   -2391.3536    11759.372 
    7210    308.37569   -2851.4995   -2392.8141    11720.344 
    7220    310.55714   -2855.3858   -2393.4556    11631.321 
    7230    313.20076   -2860.8202   -2394.9579    11520.618 
    7240    315.93621   -2865.8374   -2395.9062     11415.14 
    7250    318.88224   -2870.7467   -2396.4335    11308.053 
    7260    321.94835   -2876.1344   -2397.2607    11195.192 
    7270    324.15905    -2880.355   -2398.1929    11117.396 
    7280    326.01155   -2883.4002   -2398.4827    11063.458 
    7290    327.22761    -2884.859   -2398.1327    11038.067 
    7300    327.34941   -2885.9982   -2399.0907    11036.299 
    7310    326.92586   -2886.8656   -2400.5881    11047.388 
    7320     327.1302   -2888.4768   -2401.8954    11033.911 
    7330    328.38212   -2889.7404   -2401.2969    10997.395 
    7340    328.34407   -2890.4399    -2402.053    10986.222 
    7350    327.02391   -2887.9275   -2401.5042    11034.278 
    7360    327.05046   -2890.0415   -2403.5787    11001.014 
    7370    328.23679   -2893.4513   -2405.2239    10927.552 
    7380    328.34557   -2895.5424   -2407.1533    10894.268 
    7390    326.02815   -2892.9343   -2407.9921    10971.558 
    7400    321.34669   -2886.5496   -2408.5708    11132.042 
    7410    317.23094   -2880.4037   -2408.5467    11280.404 
    7420    315.08558   -2878.0786   -2409.4127    11352.098 
    7430     314.7389   -2877.3432   -2409.1929    11380.454 
    7440    315.43462   -2881.2535   -2412.0684     11345.13 
    7450    316.97191    -2886.175   -2414.7033    11281.751 
    7460    318.46657   -2889.5528   -2415.8579    11235.386 
    7470    319.64091   -2890.5793   -2415.1376    11211.268 
    7480    319.75286   -2892.0206   -2416.4124    11194.265 
    7490    319.38598   -2890.9099   -2415.8474    11208.258 
    7500    319.43281   -2890.4428   -2415.3107    11199.688 
    7510    320.01871   -2890.1505   -2414.1469    11172.723 
    7520    320.40605   -2890.7392   -2414.1595    11134.914 
    7530    320.04406   -2889.6646   -2413.6233    11124.475 
    7540    318.70604   -2888.9196   -2414.8685    11129.391 
    7550    316.51472   -2886.4943   -2415.7027    11174.527 
    7560    313.79527   -2882.1881   -2415.4414    11257.632 
    7570    311.73502   -2879.8255   -2416.1433    11306.031 
    7580     310.2584   -2878.4784   -2416.9925    11335.991 
    7590    308.40098   -2876.6779   -2417.9549    11385.338 
    7600    306.21811   -2873.4242   -2417.9479    11463.983 
    7610    304.20535   -2873.1636   -2420.6812    11507.221 
    7620    302.73314    -2872.355   -2422.0624    11548.738 
    7630    301.47455   -2871.6625    -2423.242    11583.921 
    7640    299.82464   -2868.9622   -2422.9958    11649.076 
    7650     297.2921   -2864.8798   -2422.6804    11744.698 
    7660    295.12985   -2863.0283    -2424.045    11804.976 
    7670    294.34857   -2859.8901   -2422.0689     11849.58 
    7680    295.51728   -2861.3161   -2421.7566    11803.119 
    7690    298.21337   -2867.5593   -2423.9895    11670.112 
    7700    301.14627     -2872.17   -2424.2378    11539.729 
    7710    303.86705    -2876.707   -2424.7278    11408.667 
    7720    306.07535   -2880.8501   -2425.5862    11289.333 
    7730    308.94473   -2885.9305   -2426.3987    11146.874 
    7740    310.90899   -2890.8044   -2428.3509    11024.864 
    7750    312.18423   -2893.7078   -2429.3574    10938.809 
    7760    311.65199   -2892.0607    -2428.502    10933.604 
    7770    310.75225   -2891.8452   -2429.6248    10913.991 
    7780    310.93424   -2890.8308   -2428.3397     10875.42 
    7790    312.52066   -2895.4273   -2430.5765    10741.535 
    7800    315.47926   -2899.4348   -2430.1833    10581.825 
    7810    320.47463     -2907.74   -2431.0583     10330.67 
    7820     326.4647    -2916.214   -2430.6225    10061.828 
    7830    331.15648   -2924.7838   -2432.2136    9814.9569 
    7840    332.77286   -2929.0045   -2434.0301    9699.1816 
    7850    330.63738    -2926.382    -2434.584    9766.1836 
    7860    324.89192    -2918.377   -2435.1249    9991.6167 
    7870    316.88434   -2905.9194    -2434.578    10309.722 
    7880    309.46651   -2894.3639   -2434.0559    10604.104 
    7890    304.04469   -2885.3867   -2433.1432    10828.936 
    7900    300.40307   -2880.6786   -2433.8518    10964.397 
    7910    299.84936   -2882.5467   -2436.5435    10954.614 
    7920    301.89265   -2885.9534    -2436.911    10865.639 
    7930    304.78894   -2890.3576   -2437.0071    10747.302 
    7940    308.80611   -2898.3713   -2439.0456    10576.877 
    7950    312.91677   -2904.1764   -2438.7364    10429.965 
    7960    315.08549   -2907.8961   -2439.2303    10344.029 
    7970    314.91843   -2910.3475   -2441.9302    10324.169 
    7980    314.00859   -2908.4447   -2441.3807    10375.275 
    7990    311.44989   -2904.6503   -2441.3922     10492.37 
    8000    307.80441   -2901.5194   -2443.6836    10625.257 
    8010    304.31114   -2896.7901   -2444.1504    10767.513 
    8020    302.07195   -2893.2092   -2443.9001    10873.346 
    8030    300.72692   -2893.2989   -2445.9904    10912.533 
    8040    300.57351   -2893.5508   -2446.4705    10916.117 
    8050    301.87431    -2894.247   -2445.2319    10876.148 
    8060    304.60415    -2900.224   -2447.1484    10744.764 
    8070    307.94959   -2902.8055   -2444.7538    10628.736 
    8080    310.07624   -2904.7465   -2443.5316    10538.092 
    8090    310.62561   -2904.5667   -2442.5347    10495.796 
    8100    309.89902    -2903.917   -2442.9657    10481.505 
    8110    308.48533   -2899.6593   -2440.8107    10523.826 
    8120    307.89171   -2897.3898   -2439.4243    10527.516 
    8130    309.54315   -2900.2894   -2439.8674    10430.472 
    8140    312.73999   -2906.0159   -2440.8389    10266.714 
    8150    317.17139   -2912.1527   -2440.3843     10083.39 
    8160    321.88472   -2918.1601    -2439.381    9895.0752 
    8170    323.55432   -2919.9302   -2438.6676    9821.8272 
    8180    321.01734   -2916.0868   -2438.5978     9909.867 
    8190    315.26959   -2908.7605   -2439.8209    10089.614 
    8200    310.39955    -2904.416   -2442.7202    10221.233 
    8210    308.52926   -2902.7171   -2443.8032    10265.051 
    8220    309.58481   -2905.1911   -2444.7072    10206.282 
    8230    313.85674   -2910.4764   -2443.6382    10049.264 
    8240    319.45386   -2920.0665   -2444.9031    9810.3192 
    8250     323.0119   -2926.2245   -2445.7688    9644.9529 
    8260    323.77434   -2928.0957   -2446.5059     9596.943 
    8270    321.82498   -2923.9034   -2445.2131    9691.5669 
    8280    317.41788   -2917.5408   -2445.4058    9875.7872 
    8290    310.71424   -2907.4644   -2445.3005    10142.872 
    8300    303.41668   -2897.4395   -2446.1301    10413.185 
    8310    297.41894   -2887.7147   -2445.3266    10651.193 
    8320    293.54315   -2882.0998   -2445.4766    10795.875 
    8330    293.82098   -2883.5348   -2446.4983    10766.155 
    8340    297.60129   -2889.0798   -2446.4204    10608.321 
    8350      303.111   -2898.8375   -2447.9828    10365.668 
    8360    309.48914   -2909.0633   -2448.7217    10092.529 
    8370    316.03358   -2918.8903   -2448.8143    9821.2853 
    8380    320.12524    -2926.298   -2450.1359    9624.7601 
    8390    321.02102   -2929.8788   -2452.3844    9556.9761 
    8400    318.63833   -2926.2337   -2452.2833    9658.8155 
    8410    313.04296   -2916.2609   -2450.6332    9916.6091 
    8420    305.92999   -2905.5075   -2450.4598    10203.833 
    8430    300.89216   -2897.0024   -2449.4481    10428.096 
    8440    299.43549   -2895.6431   -2450.2555    10498.749 
    8450    302.24018   -2897.7768   -2448.2174    10446.433 
    8460    308.25063   -2907.3298   -2448.8304    10243.493 
    8470    314.13868    -2916.972   -2449.7145    10039.718 
    8480    315.95912   -2919.3999   -2449.4346    9994.9031 
    8490    312.26381   -2914.0619   -2449.5931    10162.406 
    8500    303.75126   -2902.3756   -2450.5686    10484.522 
    8510    294.20886   -2886.9592   -2449.3458    10874.872 
    8520    286.24085   -2873.8427   -2448.0811     11212.69 
    8530    281.13405   -2865.9272   -2447.7616    11425.914 
    8540    280.04217   -2864.5403   -2447.9987    11465.924 
    8550    282.60353   -2869.5338   -2449.1825    11343.676 
    8560    287.31088   -2877.4194   -2450.0662    11128.767 
    8570    293.05634   -2886.3269   -2450.4278    10877.979 
    8580    299.00806   -2895.3766   -2450.6247    10622.282 
    8590    304.40755   -2903.5979   -2450.8147    10397.402 
    8600    307.62344   -2908.1655   -2450.5989    10268.609 
    8610      307.344   -2906.4958   -2449.3449    10288.972 
    8620    304.62811   -2901.9376   -2448.8263    10404.635 
    8630    300.21779   -2896.4614   -2449.9102    10572.425 
    8640    296.58513   -2891.2746   -2450.1267    10729.908 
    8650    293.78652   -2885.2112    -2448.226    10886.329 
    8660    291.82188    -2883.944    -2449.881    10968.513 
    8670     291.2007   -2882.8422   -2449.7032    11012.329 
    8680    292.23894   -2885.6492    -2450.966    10965.823 
    8690    294.26205   -2888.9634   -2451.2709    10877.445 
    8700     296.0497   -2893.4539   -2453.1024    10765.928 
    8710    297.94437   -2896.7397     -2453.57     10654.93 
    8720    301.20433   -2902.9798   -2454.9612    10479.548 
    8730      305.321   -2909.1659    -2455.024    10293.645 
    8740    309.90212   -2914.6647   -2453.7088    10117.997 
    8750    311.29893   -2915.5046   -2452.4711    10057.017 
    8760     309.0707   -2910.7716   -2451.0524    10142.672 
    8770    306.66778    -2907.418   -2451.2729    10222.284 
    8780    305.05777   -2905.3182   -2451.5679    10280.687 
    8790    305.61568   -2905.0585   -2450.4783    10279.622 
    8800    308.21411   -2908.7393   -2450.2942    10192.037 
    8810    311.84511   -2913.8953   -2450.0493    10064.871 
    8820    313.98378   -2917.7479   -2450.7208    9961.7501 
    8830    313.61112   -2917.7018   -2451.2291    9951.1021 
    8840    310.89401   -2912.6042    -2450.173    10044.675 
    8850    307.79937   -2907.6208   -2449.7926    10132.499 
    8860    305.76845   -2906.3057   -2451.4983    10159.766 
    8870    306.30406   -2906.5832   -2450.9792    10118.314 
    8880    309.58815   -2912.1076   -2451.6187    9969.3569 
    8890    314.08025   -2918.2934   -2451.1228    9780.4299 
    8900    316.70723   -2922.6188   -2451.5408    9652.5716 
    8910    316.42295   -2920.9023   -2450.2471    9658.8334 
    8920    313.78932   -2917.4028   -2450.6649    9740.9043 
    8930    310.25905   -2912.3077   -2450.8209    9868.0837 
    8940    308.62179   -2908.6952   -2449.6437    9932.8773 
    8950    310.83469   -2911.4206   -2449.0775     9860.788 
    8960    315.86136   -2918.7397   -2448.9199    9673.3012 
    8970    319.51531   -2926.3472   -2451.0924    9508.8183 
    8980    320.17449   -2930.0525   -2453.8172    9459.3955 
    8990    318.18518   -2925.3873    -2452.111     9573.817 
    9000    313.92718   -2919.4141   -2452.4712    9763.2566 
    9010    308.98964   -2913.5917    -2453.993    9977.8946 
    9020    304.49549    -2907.058   -2454.1441    10180.686 
    9030     301.6184    -2905.214   -2456.5795    10304.854 
    9040    298.93112   -2901.9302   -2457.2928    10446.065 
    9050    295.40194   -2897.9344   -2458.5464    10598.778 
    9060     293.7286   -2894.6759   -2457.7769    10692.056 
    9070    293.48935   -2895.9452    -2459.402    10698.228 
    9080    294.55044    -2896.552   -2458.4305    10677.267 
    9090    296.82696    -2900.588   -2459.0804    10586.641 
    9100    297.98195   -2901.5754   -2458.3498    10535.924 
    9110    296.70905   -2898.2519   -2456.9197    10580.939 
    9120    295.68471   -2896.9934   -2457.1848     10590.26 
    9130    296.55645   -2898.7423    -2457.637    10527.511 
    9140    299.88176   -2902.9201   -2456.8687    10380.718 
    9150    303.32086   -2907.7913   -2456.6245    10225.586 
    9160    307.69343   -2914.3668   -2456.6962    10045.418 
    9170    309.97632   -2917.2743    -2456.208    9940.0895 
    9180    309.37465   -2915.9718   -2455.8004    9954.0321 
    9190    305.56118   -2911.5415   -2457.0424    10081.214 
    9200    300.66372    -2904.468   -2457.2535    10251.526 
    9210     295.9949   -2899.7603   -2459.4903    10405.466 
    9220    292.89673   -2896.6884   -2461.0267    10495.634 
    9230    292.39509   -2895.0168   -2460.1013    10522.478 
    9240     292.9153   -2897.4741   -2461.7848    10483.791 
    9250    295.47816   -2904.1715   -2464.6702    10351.727 
    9260    298.66329   -2908.9211   -2464.6821     10225.06 
    9270    303.50346   -2914.2316   -2462.7932    10059.759 
    9280    307.39321   -2920.3787   -2463.1546    9887.9918 
    9290    310.29693   -2922.5469   -2461.0038    9788.6876 
    9300    311.65336   -2924.7483   -2461.1876    9725.9962 
    9310    310.98035   -2924.2796   -2461.7199     9744.197 
    9320    308.82595   -2919.4982    -2460.143     9850.142 
    9330    306.34074   -2918.7136    -2463.055    9923.7705 
    9340    304.00521   -2914.4075   -2462.2228    10039.265 
    9350    302.14557   -2911.5023   -2462.0836    10118.252 
    9360    303.89804   -2915.4717   -2463.4464    10035.556 
    9370    305.95125   -2918.8385   -2463.7592    9948.0249 
    9380    308.62897   -2924.0992    -2465.037    9825.2113 
    9390    311.13366   -2925.3889   -2462.6012    9749.0371 
    9400    312.74197   -2927.9544   -2462.7744    9682.1563 
    9410    312.72516   -2925.5396   -2460.3846    9714.1875 
    9420    310.72159   -2922.5261   -2460.3513    9803.9571 
    9430    307.41706   -2915.6475   -2458.3879    9970.0911 
    9440    303.55826    -2909.663    -2458.143    10143.886 
    9450     301.3497   -2906.9428    -2458.708      10249.2 
    9460    300.57487   -2906.2861   -2459.2037    10304.251 
    9470    300.54403   -2906.9897   -2459.9532    10327.638 
    9480    299.93421    -2908.426   -2462.2966    10346.012 
    9490    298.66898   -2906.2317   -2461.9843    10408.208 
    9500    296.99842   -2902.6245   -2460.8618    10494.437 
    9510    295.07496    -2899.603   -2460.7013    10573.849 
    9520    295.89864   -2902.0375   -2461.9107    10527.265 
    9530    296.89882   -2903.0353   -2461.4208    10487.729 
    9540    296.84522   -2902.5307   -2460.9959    10484.809 
    9550    295.66728    -2900.956   -2461.1734    10514.482 
    9560    294.10719   -2899.0096   -2461.5474    10549.443 
    9570    294.22466   -2898.7255   -2461.0886    10521.141 
    9580    296.49327   -2901.9351   -2460.9238    10402.109 
    9590    299.58214   -2906.2621   -2460.6563     10255.32 
    9600    303.36649   -2911.2792   -2460.0445    10093.788 
    9610     306.8889   -2915.3658   -2458.8919    9940.2911 
    9620    306.36101    -2913.926   -2458.2372    9934.7526 
    9630    302.42444   -2909.0952   -2459.2617    10039.379 
    9640    298.55506   -2906.1802   -2462.1022    10134.613 
    9650    294.04227   -2897.7065   -2460.3409    10321.985 
    9660    288.54304   -2890.3197   -2461.1338    10532.164 
    9670    282.04542   -2880.7419   -2461.2207    10788.083 
    9680     276.3365    -2871.657   -2460.6274    11028.282 
    9690    272.67288   -2867.7693    -2462.189     11165.03 
    9700    272.45481   -2867.6039    -2462.348    11183.384 
    9710    275.63456   -2874.2885    -2464.303    11053.092 
    9720    279.85138   -2881.9622   -2465.7044    10886.629 
    9730    283.11169   -2887.0769   -2465.9697    10767.903 
    9740    284.54309   -2889.2331   -2465.9968    10714.613 
    9750     284.9604   -2890.4372   -2466.5802    10692.784 
    9760     286.0136   -2891.5461   -2466.1226    10661.487 
    9770    288.34098   -2896.6759   -2467.7906    10557.906 
    9780    292.20791    -2903.302   -2468.6648    10413.339 
    9790    297.38309   -2909.8776   -2467.5428    10250.288 
    9800    303.26079   -2918.2042   -2467.1268    10049.489 
    9810    307.05963   -2923.0161   -2466.2882    9926.2676 
    9820    308.03181   -2924.4636   -2466.2897    9896.8504 
    9830    306.83149   -2922.2907   -2465.9021    9953.2555 
    9840    304.38865   -2918.7061   -2465.9511    10051.745 
    9850    301.97977   -2917.0645   -2467.8925     10121.53 
    9860     299.2217   -2912.9876    -2467.918    10221.641 
    9870    297.48276   -2911.3404   -2468.8574    10247.607 
    9880    299.19078    -2914.991   -2469.9674    10133.315 
    9890    300.80684    -2917.131   -2469.7036    10028.456 
    9900    302.06275   -2917.1924    -2467.897    9962.0473 
    9910    302.64937   -2918.4214   -2468.2534    9908.0655 
    9920    302.53173   -2918.5353   -2468.5423    9890.3336 
    9930    300.58871    -2916.533     -2469.43    9939.8354 
    9940    295.73356   -2909.2593   -2469.3781    10107.073 
    9950    291.40249   -2903.3432   -2469.9041    10246.296 
    9960    288.85317   -2898.7625   -2469.1153    10337.594 
    9970    290.10382   -2901.4656   -2469.9582    10265.535 
    9980     294.6874   -2908.5189   -2470.1937    10078.183 
    9990    301.92373   -2919.8268   -2470.7381    9792.5465 
STMD STAGE 1
STMD STAGE1 DIG: istep= 10000  TSC1= 10000 T= 1.001051
   10000    308.21681   -2929.8321    -2471.383     9537.308 
   10010    313.68924   -2936.8073   -2470.2184    9359.1143 
   10020    317.38074   -2941.4272   -2469.3474     9239.112 
   10030     318.3106   -2941.3209    -2467.858    9220.8414 
   10040    316.27598   -2938.7837   -2468.3471    9285.0857 
   10050    311.73882   -2932.6145   -2468.9266    9435.4505 
   10060    306.34869   -2926.3995   -2470.7291    9598.6826 
   10070      302.195   -2921.6569   -2472.1647     9718.942 
   10080    300.85652   -2919.0123    -2471.511    9758.0011 
   10090    303.11525   -2922.5901   -2471.7292    9656.5053 
   10100    308.68634   -2929.3595   -2470.2119    9453.3712 
   10110    316.20231   -2938.7113   -2468.3844    9184.2452 
   10120    324.30775   -2950.0907   -2467.7075    8888.4558 
   10130    331.12219   -2961.5563   -2469.0371     8623.776 
   10140    334.34556   -2964.9797    -2467.666    8521.6395 
   10150    332.49543   -2960.6656   -2466.1038    8600.3192 
   10160    326.18511   -2954.1001   -2468.9245    8786.7672 
   10170    318.35122   -2943.0276   -2469.5043     9052.612 
   10180    312.58989   -2936.8155   -2471.8617    9232.3969 
   10190    309.92077   -2935.2694   -2474.2857    9304.8388 
   10200    309.63396   -2936.5635   -2476.0064    9291.3332 
   10210    310.95928    -2937.043   -2474.5146    9242.1974 
   10220    313.80369   -2940.4567   -2473.6975    9120.8195 
   10230    317.83056   -2945.9026   -2473.1537    8950.1808 
   10240    321.94739   -2951.0365   -2472.1642    8778.7116 
   10250    325.17149   -2954.5064   -2470.8384    8645.8484 
   10260    327.46729   -2956.9043   -2469.8216    8550.5348 
   10270    329.68615   -2959.3583   -2468.9752    8470.4677 
   10280    332.18493   -2961.9268   -2467.8269    8403.6081 
   10290     334.1798   -2965.6807   -2468.6136    8350.6512 
   10300     334.3751    -2966.093   -2468.7353    8373.9368 
   10310    331.82768    -2963.535   -2469.9665    8478.4296 
   10320    326.55477   -2957.6128   -2471.8873    8667.0108 
   10330    320.47759   -2949.2236   -2472.5375    8894.7585 
   10340    315.88674   -2942.8445   -2472.9869    9070.7184 
   10350     314.1693   -2940.7139   -2473.4109    9145.1143 
   10360    314.29048   -2940.9419   -2473.4587    9152.2592 
   10370    316.43507   -2945.2549   -2474.5817    9074.4738 
   10380    320.50375   -2951.0705   -2474.3454    8944.1893 
   10390    324.48862   -2956.8398   -2474.1876    8817.1185 
   10400    326.26143     -2961.59   -2476.3009     8739.621 
   10410    324.54951   -2959.9868    -2477.244    8792.2146 
   10420    319.70911   -2954.4342   -2478.8912    8940.8056 
   10430    313.81708   -2949.0411    -2482.262    9106.9377 
   10440    309.23637    -2944.271   -2484.3053    9243.3104 
   10450    307.75164   -2941.5655   -2483.8083    9300.6143 
   10460    308.81406   -2942.4716   -2483.1341    9266.4937 
   10470    310.80111   -2944.5225   -2482.2294    9191.1902 
   10480    312.32225   -2945.6004   -2481.0447     9119.986 
   10490    312.44464   -2946.3847    -2481.647    9061.8848 
   10500    311.38254   -2946.0785   -2482.9206    9027.2129 
   10510    310.33144   -2946.3138   -2484.7193    8986.3898 
   10520    310.09823   -2943.1064   -2481.8588    8977.4268 
   10530    309.40362   -2944.2801   -2484.0656    8935.8906 
   10540    308.19335   -2942.2499   -2483.8357    8947.2784 
   10550    307.44094   -2941.8887   -2484.5936    8942.8397 
   10560    307.32767   -2939.9138   -2482.7872    8957.6662 
   10570    306.51703   -2940.4969    -2484.576    8963.7422 
   10580    304.54924   -2939.4306   -2486.4367    9010.1564 
   10590    302.50514     -2937.18   -2487.2265    9068.4074 
   10600    302.70252   -2936.9088   -2486.6618      9064.56 
   10610    305.17208   -2940.5166   -2486.5962    8977.4377 
   10620    308.34563   -2946.1686   -2487.5279    8856.0654 
   10630    311.91772   -2953.5882   -2489.6342    8702.7394 
   10640    315.61887   -2957.9513   -2488.4922    8580.1174 
   10650    320.01524    -2964.764   -2488.7656    8425.4871 
   10660     324.6838   -2970.7487   -2487.8061     8284.185 
   10670    327.38293   -2972.7879   -2485.8306    8220.9987 
   10680     327.0319   -2973.1497   -2486.7146    8230.5875 
   10690    323.96925    -2969.558   -2487.6783    8334.2222 
   10700    319.65978   -2964.1042   -2488.6345    8479.3014 
   10710    316.48007   -2960.1265   -2489.3864    8592.0536 
   10720    314.76188   -2957.6393   -2489.4549    8663.2357 
   10730    313.84055   -2957.5143   -2490.7002    8691.0196 
   10740    312.81912   -2955.0098   -2489.7151     8741.463 
   10750     311.5653   -2953.9001   -2490.4704    8776.2344 
   10760    310.87089   -2954.9796   -2492.5827    8776.0199 
   10770    311.75965   -2956.7872   -2493.0683    8740.8423 
   10780    314.34757   -2959.5159   -2491.9477    8664.1513 
   10790    317.64173   -2962.7625   -2490.2945    8563.1154 
   10800    320.84045   -2965.8975   -2488.6716    8461.5264 
   10810    323.48573   -2969.9169   -2488.7564    8359.0993 
   10820    323.85707   -2970.0494   -2488.3366     8336.793 
   10830    320.92132   -2966.8118   -2489.4656     8405.555 
   10840     315.2379   -2959.5758   -2490.6833    8558.1928 
   10850    309.25719     -2951.96   -2491.9633    8721.6133 
   10860    304.82191   -2947.5758   -2494.1763    8820.9005 
   10870    304.39528    -2948.883   -2496.1181    8789.7995 
   10880    306.84924   -2952.9924   -2496.5774    8677.0154 
   10890    308.72084   -2956.3004   -2497.1015    8579.7562 
   10900    309.24336   -2956.4607   -2496.4846    8543.3887 
   10910    308.32216   -2953.8984   -2495.2925    8567.9289 
   10920    305.74472   -2951.1287   -2496.3566    8637.5398 
   10930    303.04866   -2947.6324   -2496.8705    8723.8479 
   10940    302.08766    -2947.302   -2497.9695     8753.474 
   10950    302.65152   -2949.0583   -2498.8871    8739.5893 
   10960    304.04563   -2951.3481   -2499.1033    8706.4035 
   10970    304.72204   -2949.9813   -2496.7304    8725.2037 
   10980    304.41788   -2951.0092   -2498.2106     8731.695 
   10990    303.23842   -2947.8628   -2496.8187     8798.017 
   11000    300.90426   -2944.8092   -2497.2369    8884.6001 
   11010    297.78439   -2940.6456   -2497.7139     8995.477 
   11020    294.39751   -2937.0794   -2499.1854    9109.6842 
   11030    291.26481   -2932.6736   -2499.4393    9230.9444 
   11040    289.32096   -2930.0573   -2499.7143    9308.8234 
   11050    289.33791    -2931.318   -2500.9497    9307.1384 
   11060    290.64814   -2933.4718   -2501.1547    9266.9451 
   11070    291.90729    -2935.403    -2501.213    9222.2159 
   11080    293.04499   -2937.2293   -2501.3471    9177.5508 
   11090    294.75771   -2939.0288   -2500.5991    9119.5578 
   11100    297.20448   -2944.4925   -2502.4233    9006.4076 
   11110    300.72238   -2950.0601   -2502.7584    8871.0818 
   11120    305.13251   -2955.8845    -2502.023    8716.5949 
   11130    309.54469   -2961.1927   -2500.7685    8566.9261 
   11140    313.04446   -2966.5505   -2500.9206    8428.9291 
   11150    314.96964   -2970.2222   -2501.7287    8334.9967 
   11160    314.86684    -2971.044   -2502.7034     8307.686 
   11170    313.31134   -2969.1936   -2503.1667    8335.9145 
   11180    310.99046   -2964.8921   -2502.3173    8407.1786 
   11190    309.32244    -2962.384   -2502.2904    8446.6283 
   11200    308.98015    -2961.967   -2502.3824    8438.8434 
   11210    310.21792   -2963.0668   -2501.6412    8383.4534 
   11220    313.43208   -2965.3995    -2499.193    8278.1103 
   11230    318.74296   -2973.5803   -2499.4743    8069.5429 
   11240    324.97661    -2981.136   -2497.7579    7851.4519 
   11250     330.2263   -2987.0108   -2495.8242     7669.217 
   11260    332.99592   -2990.2159   -2494.9097    7562.8366 
   11270     332.4303    -2989.016   -2494.5511    7565.4388 
   11280    328.72327   -2986.7035   -2497.7525    7640.8159 
   11290    323.10704   -2979.8082    -2499.211    7807.0819 
   11300    317.66431   -2971.6289   -2499.1273    7988.8516 
   11310    314.26354   -2966.3463   -2498.9031    8113.4752 
   11320    313.06993   -2966.0709   -2500.4031    8151.6148 
   11330    313.50775   -2966.0096   -2499.6906    8165.0155 
   11340    313.80372   -2965.6349   -2498.8757    8185.6261 
   11350    312.96716   -2964.8764   -2499.3614    8226.3716 
   11360    311.20565   -2964.1201   -2501.2253     8283.897 
   11370    309.52084   -2964.8558    -2504.467    8322.3564 
   11380    308.79852   -2963.9241   -2504.6097    8362.3061 
   11390    308.53685   -2965.1959   -2506.2707    8366.9919 
   11400    309.46223    -2966.913   -2506.6114    8341.2933 
   11410    311.90198    -2970.138   -2506.2074     8267.058 
   11420    314.56718   -2974.9359    -2507.041    8165.9027 
   11430    316.30186   -2977.6794   -2507.2044    8095.4189 
   11440    316.61675   -2978.5073   -2507.5639     8067.031 
   11450    315.87995   -2977.4702   -2507.6228    8079.2123 
   11460    314.25289   -2975.2589   -2507.8316    8125.4336 
   11470    311.43278   -2974.7691   -2511.5364     8177.286 
   11480    307.32006   -2969.3909   -2512.2756    8304.5757 
   11490    302.83643   -2961.7132    -2511.267    8465.6419 
   11500    298.19733   -2955.6352   -2512.0893     8610.333 
   11510    295.80434   -2953.7926    -2513.806    8667.9669 
   11520    295.62615   -2954.8785    -2515.157    8654.3761 
   11530    297.95225   -2957.6734    -2514.492    8579.1693 
   11540    301.06488   -2962.7452    -2514.934    8455.3961 
   11550    301.12167   -2963.3765   -2515.4808    8430.5669 
   11560    297.28869   -2957.4193   -2515.2249    8543.4912 
   11570    292.67128   -2951.3797   -2516.0534    8667.4552 
   11580    290.25052   -2948.9909   -2517.2652    8716.3986 
   11590    291.86734   -2951.9834   -2517.8529    8643.3459 
   11600    296.37492    -2956.763   -2515.9277    8505.5416 
   11610    302.00931   -2965.0496   -2515.8336    8306.8505 
   11620    307.00371   -2970.6658    -2514.021    8155.5746 
   11630    310.33045   -2976.0631   -2514.4701    8030.2148 
   11640    310.72576   -2975.0988   -2512.9177    8020.2447 
   11650    308.42762   -2972.9998   -2514.2371    8066.4807 
   11660    305.23538   -2969.6312   -2515.6167    8144.3397 
   11670    302.94708   -2966.9514   -2516.3406    8204.2839 
   11680    302.22685   -2967.4497   -2517.9102    8207.6302 
   11690    302.26146   -2964.9631    -2515.372    8233.9054 
   11700    301.53176   -2964.6018   -2516.0961    8251.9582 
   11710    299.29285   -2960.0778   -2514.9024    8347.6909 
   11720    296.41139   -2956.5312   -2515.6417    8438.1174 
   11730     295.2597   -2955.0019   -2515.8254      8470.51 
   11740     295.0262    -2953.193   -2514.3639    8486.8086 
   11750    294.72443   -2953.5165   -2515.1363    8478.4752 
   11760    294.28933   -2950.8886   -2513.1556    8502.8148 
   11770    294.87491   -2951.4916   -2512.8875    8470.3679 
   11780    296.81724   -2954.4967   -2513.0035     8383.369 
   11790     300.5707   -2960.5223   -2513.4461    8230.7525 
   11800    304.17605   -2965.7025   -2513.2637    8078.0558 
   11810      307.812   -2971.3663   -2513.5193    7924.6286 
   11820    311.13165   -2975.0095   -2512.2247    7797.5737 
   11830    314.10066    -2978.383    -2511.182    7687.7402 
   11840    317.13474   -2982.4108   -2510.6969    7583.6346 
   11850    319.07154   -2983.8062   -2509.2114    7543.8735 
   11860    318.52007   -2984.1029   -2510.3284    7573.5184 
   11870    314.91897   -2980.3545   -2511.9364    7711.5641 
   11880    308.96211   -2972.8038   -2513.2461    7932.7021 
   11890    302.82292   -2965.4537   -2515.0275    8152.2674 
   11900    297.94476   -2958.4498   -2515.2795     8352.457 
   11910    295.27928   -2954.3204   -2515.1149    8467.5795 
   11920    294.94354   -2954.2064   -2515.5002    8489.2735 
   11930    295.57627   -2954.6376   -2514.9903     8477.172 
   11940    296.43821   -2954.7169   -2513.7876    8455.5832 
   11950    298.02117   -2957.5739     -2514.29    8385.7613 
   11960    300.02098   -2961.5299   -2515.2715    8286.9253 
   11970    299.74686   -2961.8775   -2516.0268    8264.2965 
   11980    296.85207   -2959.2531   -2517.7082    8323.2714 
   11990    293.23288   -2954.6351   -2518.4734    8412.5372 
   12000    290.31982   -2950.9984   -2519.1697    8490.0108 
   12010    287.00112   -2946.8543   -2519.9619    8578.6001 
   12020    284.73696   -2945.1339   -2521.6093      8616.88 
   12030    285.61291   -2946.3451   -2521.5175    8568.5537 
   12040    289.65632   -2950.5372   -2519.6953    8436.7833 
   12050    293.87567   -2955.9039   -2518.7861    8289.7046 
   12060    296.93038   -2960.6312   -2518.9697     8180.062 
   12070    296.79891   -2961.1347   -2519.6688    8172.2259 
   12080    293.93941   -2958.5764   -2521.3638    8254.1313 
   12090    290.49367   -2954.4106   -2522.3233    8364.8955 
   12100    287.19738   -2949.8536   -2522.6693    8492.3224 
   12110    284.37044   -2947.8128   -2524.8333    8580.8755 
   12120    283.46096   -2948.7778   -2527.1511    8601.4597 
   12130    285.75642   -2951.2796   -2526.2386    8544.9539 
   12140    290.46171   -2957.5668   -2525.5271    8400.8939 
   12150    296.34598   -2966.3452    -2525.553    8202.1945 
   12160    301.81742   -2972.5393   -2523.6088    8039.1964 
   12170     305.1483   -2976.5204   -2522.6355    7927.5263 
   12180    306.24124   -2977.2171   -2521.7065     7887.563 
   12190    305.58113    -2975.706   -2521.1772    7902.6853 
   12200    303.72802     -2973.41   -2521.6376    7952.1727 
   12210    301.24107   -2968.8664   -2520.7931     8043.063 
   12220    299.65243   -2967.5103   -2521.8001    8084.6006 
   12230    299.83739   -2967.6033    -2521.618     8082.888 
   12240      301.628   -2969.8411   -2521.1923    8031.3112 
   12250    304.19867    -2974.018   -2521.5455    7940.6265 
   12260    306.29561   -2976.9327   -2521.3412    7869.1431 
   12270    308.11773   -2980.3746   -2522.0729    7796.4093 
   12280    308.97606   -2979.7384   -2520.1599    7785.2787 
   12290    308.11123   -2978.9134   -2520.6213    7806.5473 
   12300    305.10495   -2975.4125    -2521.592    7898.0254 
   12310     300.1241   -2969.8536   -2523.4417    8050.6713 
   12320     294.9199   -2962.0237   -2523.3527    8239.0374 
   12330    290.07383   -2954.7036   -2523.2407    8420.1637 
   12340    286.31963   -2949.7197   -2523.8409     8562.733 
   12350    283.26645   -2944.9783   -2523.6409    8686.6262 
   12360    280.61111   -2941.6316   -2524.2439     8773.619 
   12370    280.00996   -2942.9049   -2526.4113    8758.5012 
   12380    282.44611   -2946.6544   -2526.5372    8650.3927 
   12390     286.8016   -2952.0006   -2525.4049    8480.2319 
   12400    291.78813   -2957.3658   -2523.3531    8301.5933 
   12410    297.18014   -2963.6351   -2521.6022    8109.9019 
   12420    300.98734   -2969.6479    -2521.952    7959.2399 
   12430    302.96981   -2970.3697   -2519.7251    7906.8973 
   12440    303.08884   -2969.5576   -2518.7359    7906.5401 
   12450     301.7322   -2965.8773   -2517.0735    7968.1798 
   12460    299.09415    -2961.956   -2517.0761     8062.833 
   12470    295.90775   -2958.3361   -2518.1958    8167.3489 
   12480    294.03316   -2957.6406   -2520.2886    8209.7636 
   12490     294.8935   -2957.8978   -2519.2661    8191.9474 
   12500    297.26131   -2962.5814   -2520.4277    8092.6628 
   12510    299.06898   -2965.6269   -2520.7844    8019.4086 
   12520    299.49224   -2968.2471   -2522.7751    7972.0436 
   12530    298.62553   -2967.7484   -2523.5656    7976.4369 
   12540    296.97268   -2964.5354    -2522.811    8025.5705 
   12550    294.91233   -2962.4096   -2523.7498    8076.2376 
   12560    293.25377   -2960.5713   -2524.3785    8124.3795 
   12570    292.75329   -2958.3973    -2522.949    8161.0539 
   12580    294.22538   -2960.0167   -2522.3788    8122.2277 
   12590     296.2985   -2961.9945    -2521.273    8066.4596 
   12600    298.01138   -2965.1608   -2521.8915    8002.9666 
   12610       299.43    -2968.256   -2522.8765    7942.8418 
   12620      301.222   -2970.1607   -2522.1158    7883.6875 
[...]
   36980    285.17831    -2960.887   -2536.7059    8452.6637 
   36990    287.45869   -2963.7014   -2536.1284    8374.6981 
   37000    287.97666   -2963.3999   -2535.0564    8354.2207 
   37010    286.83057   -2961.4187   -2534.7799    8378.8203 
   37020     284.7905   -2958.1506   -2534.5463    8444.6223 
   37030    283.02016   -2955.7643   -2534.7933    8501.3595 
   37040    282.06969    -2954.261   -2534.7037    8534.5199 
   37050    282.28468   -2954.5044   -2534.6274    8521.1201 
   37060    284.04574   -2957.2415    -2534.745    8444.1814 
   37070    287.51718   -2960.1047   -2532.4447    8325.5844 
   37080    292.16718   -2966.7034   -2532.1269    8143.9505 
   37090    297.51657    -2974.689   -2532.1557    7925.0835 
   37100    302.79321   -2980.8642   -2530.4823     7737.223 
   37110    306.63843   -2984.1412   -2528.0398    7609.3089 
   37120    308.72306   -2988.0058   -2528.8037    7510.2409 
   37130    309.27342   -2989.1598    -2529.139    7469.1058 
   37140    308.89653   -2987.7023   -2528.2421    7476.7382 
   37150    308.61455   -2988.3385   -2529.2978    7463.6209 
   37160    309.08418   -2990.0511   -2530.3118    7431.6501 
   37170    310.01304   -2991.5438   -2530.4228    7399.2544 
   37180    310.89336   -2991.2741   -2528.8438    7389.2832 
   37190    311.77996   -2991.1503   -2527.4012    7380.8408 
   37200    312.59841   -2991.9922   -2527.0258    7364.7294 
   37210    313.21921   -2993.7705   -2527.8807    7341.6138 
   37220    313.31987   -2994.1171   -2528.0775    7342.8198 
   37230    312.83359   -2994.9238   -2529.6076    7348.7923 
   37240    311.80703   -2994.5316   -2530.7423    7381.4788 
   37250    309.80551    -2991.392   -2530.5798    7468.1936 
   37260    305.43525      -2986.2   -2531.8882    7626.6381 
   37270    298.81409   -2975.3158   -2530.8525     7891.325 
   37280    290.86881   -2964.0044   -2531.3591    8188.4035 
   37290    283.62052   -2953.6191   -2531.7551    8460.5613 
   37300    278.34572   -2947.0454   -2533.0272    8654.9981 
   37310    274.85222   -2941.1623   -2532.3405    8800.9946 
   37320    274.17052   -2940.4132   -2532.6053    8830.1031 
   37330    274.94908    -2941.538    -2532.572    8804.6036 
   37340    277.39257   -2945.8063   -2533.2059      8706.57 
   37350    279.03041   -2947.2223   -2532.1857    8644.3557 
   37360    279.52365   -2948.4266   -2532.6564    8614.1717 
   37370     280.8577   -2951.2159   -2533.4614    8558.3556 
   37380    284.34096   -2955.0257   -2532.0901    8457.6682 
   37390    288.25792   -2960.5699   -2531.8081    8328.4222 
   37400    291.48882   -2965.4611   -2531.8936    8219.5799 
   37410    294.33066   -2967.8533   -2530.0587    8139.3095 
   37420    295.49506   -2968.1701   -2528.6436    8109.2235 
   37430    295.01558   -2965.5871   -2526.7737    8142.3249 
   37440    294.17409   -2964.6652   -2527.1035    8162.3962 
   37450    293.68894    -2961.676    -2524.836    8201.2321 
   37460    292.72215   -2959.8046   -2524.4026    8243.9764 
   37470    290.52158   -2956.5863   -2524.4575    8331.9749 
   37480    288.06374   -2953.9429     -2525.47     8423.642 
   37490    286.35585   -2950.8036    -2524.871    8508.9842 
   37500    286.27947   -2951.0891   -2525.2701    8524.3382 
   37510    288.03727   -2952.5205   -2524.0869      8489.14 
   37520    291.24086   -2957.3715   -2524.1728    8383.4783 
   37530    294.47621   -2962.9464   -2524.9353    8263.5905 
   37540    297.20553   -2966.8758   -2524.8051    8169.8579 
   37550    298.05328   -2968.7596   -2525.4279    8121.0567 
   37560    296.71974   -2968.1602   -2526.8121    8135.7455 
   37570    294.35069   -2965.5418   -2527.7175    8195.9503 
   37580    292.80391   -2961.6625   -2526.1388      8262.93 
   37590    291.70287   -2961.2146   -2527.3287    8295.8678 
   37600    290.18852   -2957.3846   -2525.7512    8384.6236 
   37610     288.4725   -2951.8359   -2522.7549    8500.1774 
   37620    286.71214    -2949.651   -2523.1884    8583.0576 
   37630    283.36718   -2944.4081   -2522.9209    8743.7307 
   37640    278.26954   -2936.8929   -2522.9881    8961.8045 
   37650    272.38838   -2928.7748   -2523.6178    9182.8502 
   37660    269.31381   -2926.2626   -2525.6787    9288.7848 
   37670    268.10881   -2925.5375    -2526.746     9334.133 
   37680    269.13836   -2927.9527   -2527.6298    9296.1261 
   37690    274.09822   -2935.5286   -2527.8282    9127.5111 
   37700    279.46796   -2943.3282   -2527.6408    8927.9618 
   37710    284.62812   -2950.4756   -2527.1129    8743.3207 
   37720    289.55218   -2958.4414   -2527.7545    8564.3929 
   37730    293.58799   -2962.1683   -2525.4784      8442.84 
   37740    297.96821   -2965.7508   -2522.5457     8326.036 
   37750    302.85497   -2971.3639   -2520.8901    8173.4024 
   37760    306.34719   -2973.9732    -2518.305    8067.6774 
   37770    306.63026   -2973.1425   -2517.0532    8059.4351 
   37780    304.96165   -2970.7352   -2517.1278    8101.4305 
   37790    304.09446   -2968.9097   -2516.5923    8119.4739 
   37800    304.63916    -2968.668   -2515.5404    8098.4982 
   37810    306.21257   -2971.8247   -2516.3567    8029.7709 
   37820    307.16628   -2973.5642   -2516.6776    7994.3515 
   37830    305.45598   -2968.6294   -2514.2868    8089.5559 
   37840    301.48762   -2962.2263   -2513.7863     8248.716 
   37850    296.62552   -2956.1939    -2514.986    8434.6442 
   37860    292.01396   -2948.7714   -2514.4228     8635.006 
   37870    287.96943   -2943.0611   -2514.7284    8821.5391 
   37880    285.02219   -2939.3088   -2515.3599    8956.6138 
   37890    282.15317   -2934.3075   -2514.6261    9108.4148 
   37900      281.015   -2932.0601   -2514.0716    9172.7994 
   37910    284.37498   -2935.7871   -2512.8009    9074.4255 
   37920    287.15614   -2942.6875   -2515.5645    8934.7328 
   37930    289.59397   -2948.0783   -2517.3292    8819.8044 
   37940    289.80697    -2947.408   -2516.3421     8823.745 
   37950    288.00913   -2942.3163   -2513.9246    8929.0464 
   37960    286.04775   -2938.6457   -2513.1713    9034.4825 
   37970    282.95673   -2931.2482   -2510.3715    9210.2197 
   37980    283.09865   -2930.5028    -2509.415    9248.2792 
   37990    287.29001   -2936.1958   -2508.8736    9137.2462 
   38000    290.40595   -2941.3057   -2509.3488    9035.1467 
   38010    291.64612   -2940.4499   -2506.6484    9040.1328 
   38020    290.62004   -2938.1588   -2505.8835     9106.949 
   38030    287.56574   -2933.6783    -2505.946    9234.2852 
   38040    287.38535   -2933.5086   -2506.0447    9241.2308 
   38050    290.86421   -2938.5707   -2505.9323    9109.5684 
   38060    294.96938   -2943.5418   -2504.7972    8979.0878 
   38070    298.57494   -2949.4751   -2505.3675    8840.0404 
   38080    300.19556   -2951.6653   -2505.1471    8784.6075 
   38090    301.30483   -2953.1259   -2504.9578    8746.5414 
   38100    302.91957   -2956.2059    -2505.636    8687.5058 
   38110    304.55752   -2957.7358   -2504.7296    8654.8918 
   38120    305.26142   -2958.5264   -2504.4732    8653.4064 
   38130    304.29563   -2958.1284   -2505.5118      8698.73 
   38140    302.06381   -2955.7455   -2506.4485    8794.2175 
   38150    298.44249    -2950.903   -2506.9924    8942.9247 
   38160    295.08291   -2944.3273   -2505.4139     9115.634 
   38170    291.61075   -2937.6316   -2503.8827    9298.5963 
   38180    287.75681   -2931.2803   -2503.2639    9478.3722 
   38190    286.58123   -2930.0376   -2503.7697    9540.4559 
   38200    287.72049   -2930.2631   -2502.3007    9535.7455 
   38210    290.91608   -2934.7305   -2502.0149    9439.8266 
   38220    293.05947   -2936.9577    -2501.054    9373.2854 
   38230    292.14605   -2934.1842   -2499.6391    9426.8888 
   38240    290.73559    -2931.881   -2499.4338    9472.1424 
   38250     291.5369   -2932.7794   -2499.1403     9434.291 
   38260    294.57838   -2936.7674   -2498.6044    9310.3939 
   38270    296.22739   -2939.4085   -2498.7927    9221.3641 
   38280    295.68956   -2937.5599   -2497.7441    9234.5186 
   38290    293.46872   -2932.5785    -2496.066     9319.496 
   38300    292.57161    -2930.765   -2495.5869    9343.0863 
   38310    292.17321   -2929.4481   -2494.8626    9355.9925 
   38320    291.27937   -2927.1958   -2493.9398    9397.8089 
   38330    289.87069   -2925.2787   -2494.1181    9457.5564 
   38340     288.6063   -2922.5479   -2493.2679     9530.072 
   38350    288.68462   -2923.5151   -2494.1186    9538.5508 
   38360     289.8179   -2925.0966   -2494.0144    9520.6303 
   38370    290.96227   -2926.2011   -2493.4168    9505.9443 
   38380    291.92767   -2927.0291   -2492.8088    9497.7074 
   38390    293.25863   -2927.9713   -2491.7713    9479.8963 
   38400    295.60976   -2929.0329   -2489.3357    9441.0337 
   38410    299.72383   -2935.0608   -2489.2443    9319.4726 
   38420    303.35398   -2939.9685   -2488.7525    9208.5348 
   38430     304.5268   -2940.5136   -2487.5531    9203.8289 
   38440    303.17398   -2940.3788   -2489.4305    9260.5498 
   38450    299.65625   -2935.2726   -2489.5567    9424.2374 
   38460    294.81671   -2927.4573   -2488.9398    9620.3053 
   38470    291.76406   -2923.4226   -2489.4456    9746.0192 
   38480    289.89903   -2918.2469   -2487.0441    9854.6252 
   38490    289.28933   -2915.6362   -2485.3402    9899.4397 
   38500    292.12771   -2918.5098   -2483.9919    9802.4174 
   38510    294.55532   -2921.1403   -2483.0115    9704.1576 
   38520    296.49865   -2922.0391   -2481.0198    9637.8389 
   38530    298.20569   -2923.2166   -2479.6583    9574.1958 
   38540     299.3879   -2924.4491   -2479.1323     9524.539 
   38550     299.9443   -2924.2502   -2478.1057    9509.5454 
   38560    300.23453   -2924.9852   -2478.4091    9495.4436 
   38570    300.81659   -2925.4955   -2478.0536    9485.1676 
   38580    301.98598   -2926.7253   -2477.5441    9462.2441 
   38590     303.4426   -2929.2626   -2477.9147    9419.8236 
   38600    305.31695    -2931.521   -2477.3852    9368.5743 
   38610    308.65004   -2935.8972   -2476.8037    9258.5708 
   38620    310.54893   -2938.4056   -2476.4876    9185.5228 
   38630    310.50986   -2935.9016   -2474.0417    9217.7304 
   38640    309.36143   -2935.2235   -2475.0718    9258.8657 
   38650    308.79394   -2933.7404   -2474.4328     9294.616 
   38660    310.14247   -2936.8126   -2475.4992    9236.8914 
   38670    310.42757   -2938.3203   -2476.5828    9215.8809 
   38680    308.99086   -2935.1867   -2475.5862    9285.0814 
   38690    306.36681   -2931.1077   -2475.4103    9378.8932 
   38700    305.45168    -2928.849   -2474.5128    9418.2665 
   38710    305.57402   -2928.1882     -2473.67    9420.8191 
   38720    306.63223   -2929.5077   -2473.4155    9387.6198 
   38730    309.62613   -2932.3372   -2471.7918    9312.6107 
   38740    312.52581   -2937.4848   -2472.6263    9212.0231 
   38750    311.69844   -2936.9551   -2473.3273    9258.9764 
   38760    306.81996   -2928.6047   -2472.2333    9470.8809 
   38770    300.98714   -2920.1971   -2472.5015    9718.5885 
   38780    294.80142   -2912.1368   -2473.6421    9973.5945 
   38790    291.36918    -2905.446   -2472.0564    10168.154 
   38800     289.3384   -2902.0358   -2471.6669    10299.651 
   38810    287.87575    -2897.981   -2469.7876    10425.502 
   38820    288.68385    -2900.505   -2471.1096    10425.733 
   38830    289.47743   -2901.0023   -2470.4266    10440.515 
   38840    288.86727   -2899.1964   -2469.5283    10504.309 
   38850    287.82388   -2896.2406   -2468.1244    10578.688 
   38860    286.30593   -2894.1813   -2468.3229     10649.28 
   38870    284.70364   -2892.4499   -2468.9748    10713.682 
   38880    284.83155   -2893.8916   -2470.2262    10698.886 
   38890    286.79766   -2896.4937   -2469.9039    10628.797 
   38900    290.70639   -2902.8955   -2470.4918    10475.252 
   38910    295.30072   -2909.5265   -2470.2891    10297.989 
   38920    299.58844   -2915.9501    -2470.335    10136.725 
   38930    303.29842    -2920.906   -2469.7726    9994.9634 
   38940    305.12192    -2923.669   -2469.8233    9931.7757 
   38950    305.48418   -2922.5452   -2468.1606    9954.5823 
   38960    303.36217   -2918.7598   -2467.5316    10070.703 
   38970    298.41588   -2912.2279   -2468.3569    10262.227 
   38980     294.6237   -2904.2111   -2465.9807    10445.028 
   38990    292.65618   -2901.1379    -2465.834    10527.295 
   39000    293.33025   -2900.9562   -2464.6497    10516.505 
   39010    296.71656   -2906.2293   -2464.8859    10387.515 
   39020    301.07341   -2909.8342   -2462.0103    10240.716 
   39030    304.97605   -2914.9759   -2461.3471    10094.598 
   39040    307.93489   -2919.4162   -2461.3864    9963.7116 
   39050    307.68747    -2918.528   -2460.8662    9970.4195 
   39060    305.02592   -2915.3524   -2461.6494    10063.392 
   39070    303.32788   -2911.6931   -2460.5159    10141.101 
   39080    302.75044   -2910.8127   -2460.4943    10168.468 
   39090    301.21048   -2907.8974   -2459.8697    10241.394 
   39100    298.29326   -2903.7489   -2460.0603    10350.136 
   39110    296.74176   -2902.3507   -2460.9698    10396.891 
   39120     295.8177    -2902.794   -2462.7876    10408.699 
   39130    296.54094   -2903.6781   -2462.5959     10377.42 
   39140    300.55452   -2909.3569   -2462.3049    10219.518 
   39150    306.25522   -2917.9789   -2462.4475    10001.837 
   39160     311.5098   -2924.7578   -2461.4106    9806.3611 
   39170    315.32075   -2930.8087    -2461.793    9657.3994 
   39180    317.84852   -2933.4566    -2460.681    9577.4498 
   39190    318.21744   -2933.9658   -2460.6415    9558.7191 
   39200    316.72744   -2930.8217   -2459.7137    9614.9844 
   39210    314.67757   -2924.7079   -2456.6488    9720.3251 
   39220    311.70651   -2919.9977   -2456.3579    9837.3963 
   39230    307.45965   -2914.7116   -2457.3887    9990.0562 
   39240    304.94634   -2909.3244   -2455.7399    10105.576 
   39250    302.45518   -2905.3414   -2455.4622    10215.998 
   39260    300.58201   -2903.9966   -2456.9036    10271.438 
   39270    301.12808   -2905.1884   -2457.2832    10246.927 
   39280    303.02156   -2908.4699   -2457.7483     10166.36 
   39290    303.47545   -2910.4505   -2459.0538     10133.47 
   39300    302.70083   -2910.0702   -2459.8256    10160.602 
   39310    300.67393    -2904.684   -2457.4543    10278.966 
   39320    298.62846   -2902.5991   -2458.4119    10363.623 
   39330    295.85447     -2897.13   -2457.0689     10509.58 
   39340     292.9563   -2892.0934   -2456.3431    10656.451 
   39350    290.10358   -2886.8936   -2455.3865    10808.528 
   39360    287.53995   -2883.9005   -2456.2066    10923.426 
   39370    286.97986   -2883.6057   -2456.7449    10962.644 
   39380    288.30445   -2884.6377   -2455.8067     10941.71 
   39390    291.11974   -2889.1816   -2456.1631     10840.66 
   39400    293.95691   -2893.7887   -2456.5501    10737.856 
   39410     296.3609    -2897.016   -2456.2016    10654.862 
   39420    297.93198   -2899.2055   -2456.0543    10594.575 
   39430     297.7753   -2898.0866   -2455.1684    10596.586 
   39440    296.20418   -2897.3454   -2456.7641    10615.709 
   39450     293.8741   -2893.2222   -2456.1068    10688.509 
   39460    291.75072    -2889.881   -2455.9239    10747.952 
   39470    290.58447    -2887.006   -2454.7836    10786.585 
   39480    291.35506   -2884.6528   -2451.2843    10780.101 
   39490    294.36541   -2890.1629   -2452.3167    10636.038 
   39500    298.40558   -2896.7351   -2452.8794    10460.994 
   39510    303.35215   -2904.7816   -2453.5682    10257.792 
   39520    307.59207   -2910.0756   -2452.5558    10094.081 
   39530    310.50614   -2914.9883    -2453.134    9975.2915 
   39540    312.14884   -2918.6983   -2454.4006     9886.746 
   39550     310.7351   -2915.5105   -2453.3155    9939.0004 
   39560    310.44067   -2915.5583   -2453.8013    9935.3411 
   39570    312.46562   -2919.2002   -2454.4313    9847.9844 
   39580    314.52562    -2923.567    -2455.734    9754.0043 
   39590    317.39074   -2928.7274   -2456.6328    9640.9778 
   39600    321.87172   -2933.8567   -2455.0969    9507.5714 
   39610    326.74048   -2942.4235   -2456.4218    9320.4549 
   39620    331.35022   -2948.2941   -2455.4358    9170.4597 
   39630    331.51854   -2947.0641   -2453.9554    9193.3566 
   39640    326.96122   -2940.9924   -2454.6624    9367.8098 
   39650    320.64921   -2932.1547   -2455.2133    9609.4484 
   39660    313.81505   -2921.9769   -2455.2008    9872.5926 
   39670    307.64483   -2913.5856   -2455.9872     10109.65 
   39680    304.10407   -2907.9432   -2455.6114    10259.334 
   39690    301.41077   -2905.0987    -2456.773    10360.827 
   39700    301.08439   -2903.5856   -2455.7453    10388.759 
   39710    302.38077   -2904.3489   -2454.5805    10352.574 
   39720    304.31158   -2907.4163   -2454.7758    10269.847 
   39730    304.38414   -2906.6243   -2453.8759    10260.006 
   39740    302.50616   -2904.9755   -2455.0205     10296.85 
   39750    299.89325   -2900.3046   -2454.2361    10382.022 
   39760    296.18803   -2895.6881   -2455.1308    10490.792 
   39770    292.72427   -2890.8594   -2455.4542    10605.459 
   39780    290.13595   -2886.0659   -2454.5106     10711.05 
   39790     289.3771    -2884.879   -2454.4525    10738.891 
   39800    291.50124   -2887.4597   -2453.8737    10669.117 
   39810    294.98912   -2893.6539     -2454.88    10531.888 
   39820    298.17035    -2898.475   -2454.9692    10418.227 
   39830    300.21515   -2899.6017   -2453.0544    10363.171 
   39840    300.60279    -2898.714   -2451.5901    10358.273 
   39850    300.15524   -2898.6914   -2452.2332     10361.36 
   39860    299.29881   -2899.1228   -2453.9386    10371.126 
   39870    297.90968   -2897.1539   -2454.0358    10423.547 
   39880    295.12445   -2892.6559   -2453.6807    10543.153 
   39890    291.64317   -2888.5198   -2454.7227     10678.52 
   39900    287.98934   -2881.6188   -2453.2565    10853.384 
   39910    284.97962   -2877.2935   -2453.4079    10987.427 
   39920    284.33377   -2876.3664   -2453.4415    11028.636 
   39930    287.15865   -2880.7475   -2453.6207    10933.732 
   39940     290.6885    -2885.222   -2452.8449    10814.247 
   39950    293.97175     -2891.88   -2454.6193    10667.124 
   39960    296.99942   -2896.9849   -2455.2208    10534.618 
   39970    301.69624   -2902.4562   -2453.7059    10370.479 
   39980    308.74486   -2911.3654   -2452.1309    10122.475 
   39990    316.44512   -2921.9828   -2451.2947    9848.6421 
   40000    321.87154     -2928.96   -2450.2005    9659.4189 
Loop time of 14.7913 on 4 procs for 40000 steps with 500 atoms

Performance: 233.651 ns/day, 0.103 hours/ns, 2704.291 timesteps/s
39.2% CPU use with 4 MPI tasks x no OpenMP threads

MPI task timing breakdown:
Section |  min time  |  avg time  |  max time  |%varavg| %total
---------------------------------------------------------------
Pair    | 3.0778     | 3.2692     | 3.4303     |   7.7 | 22.10
Bond    | 0.0024064  | 0.002565   | 0.0027428  |   0.3 |  0.02
Neigh   | 0.06483    | 0.068046   | 0.06959    |   0.7 |  0.46
Comm    | 8.5155     | 8.7391     | 8.92       |   5.0 | 59.08
Output  | 0.17533    | 0.19787    | 0.24588    |   6.3 |  1.34
Modify  | 1.7849     | 1.8894     | 1.9476     |   4.8 | 12.77
Other   |            | 0.6252     |            |       |  4.23

Nlocal:    125 ave 130 max 123 min
Histogram: 2 1 0 0 0 0 0 0 0 1
Nghost:    867 ave 877 max 856 min
Histogram: 1 0 0 1 0 0 0 1 0 1
Neighs:    3687 ave 3882 max 3584 min
Histogram: 1 1 1 0 0 0 0 0 0 1

Total # of neighbors = 14748
Ave neighs/atom = 29.496
Ave special neighs/atom = 0
Neighbor list builds = 252
Dangerous builds = 0

write_data      lj-out.data
STMD: STAGE= 1 #bins= 626  binsize 2
Total wall time: 0:00:14
