LAMMPS (22 Aug 2018)
Processor partition = 1
OMP_NUM_THREADS environment is not set. Defaulting to 1 thread. (../comm.cpp:87)
  using 1 OpenMP thread(s) per MPI task
# Must be run with at LEAST 2 procs in 'partition mode'

units           real
atom_style      full

pair_style        lj/charmm/coul/long 8.0 10.0 10.0
bond_style        harmonic
angle_style       charmm
dihedral_style    charmm
improper_style    harmonic
kspace_style      pppm 0.0001

# Define variables
variable tlo world 220 270
variable thi world 300 350
variable rep world 0 1
variable temp equal 305.0
variable steps equal 1000000

read_data         data.peptide
  orthogonal box = (36.8402 41.0137 29.7681) to (64.2116 68.3851 57.1395)
  1 by 1 by 1 MPI processor grid
  reading atoms ...
  2004 atoms
  reading velocities ...
  2004 velocities
  scanning bonds ...
  3 = max bonds/atom
  scanning angles ...
  6 = max angles/atom
  scanning dihedrals ...
  14 = max dihedrals/atom
  scanning impropers ...
  1 = max impropers/atom
  reading bonds ...
  1365 bonds
  reading angles ...
  786 angles
  reading dihedrals ...
  207 dihedrals
  reading impropers ...
  12 impropers
  4 = max # of 1-2 neighbors
  7 = max # of 1-3 neighbors
  14 = max # of 1-4 neighbors
  18 = max # of special neighbors

neighbor          2.0 bin
neigh_modify      delay 5

timestep          2.0

thermo_style      custom step temp pe etotal enthalpy press
thermo            50

fix               fxnvt all nvt temp ${temp} ${temp} 100.0 tchain 1
fix               fxnvt all nvt temp 305 ${temp} 100.0 tchain 1
fix               fxnvt all nvt temp 305 305 100.0 tchain 1
fix               fxSTMD all stmd ${steps} constant_f 0.001 0.00002 ${tlo} ${thi} -8500 -5500 12 50000 500000 fxnvt no
fix               fxSTMD all stmd 1000000 constant_f 0.001 0.00002 ${tlo} ${thi} -8500 -5500 12 50000 500000 fxnvt no
fix               fxSTMD all stmd 1000000 constant_f 0.001 0.00002 270 ${thi} -8500 -5500 12 50000 500000 fxnvt no
fix               fxSTMD all stmd 1000000 constant_f 0.001 0.00002 270 350 -8500 -5500 12 50000 500000 fxnvt no
fix               2 all shake 0.0001 10 0 b 4 6 8 10 12 14 18 a 31
  19 = # of size 2 clusters
  6 = # of size 3 clusters
  3 = # of size 4 clusters
  640 = # of frozen angles

group             peptide type <= 12
84 atoms in group peptide
#dump              mydump peptide dcd 1000 ${rep}.dcd
#dump_modify       mydump unwrap yes

# Run in partition mode, but with exchanges OFF until STG2
temper/stmd       ${steps} 1000 fxSTMD fxnvt 0 12345 off
temper/stmd       1000000 1000 fxSTMD fxnvt 0 12345 off
PPPM initialization ...
  using 12-bit tables for long-range coulomb (../kspace.cpp:321)
  G vector (1/distance) = 0.268725
  grid = 15 15 15
  stencil order = 5
  estimated absolute RMS force accuracy = 0.0228209
  estimated relative force accuracy = 6.87243e-05
  using double precision FFTs
  3d grid and FFT values/proc = 10648 3375
RESTMD: #replicas=2  walker=1
STMD: STAGE=1, #bins=251  binsize=12.000000
  Emin=-8500.000000 Emax=-5500.000000 f-value=1.024290 df=0.001000
  f-tolerances: STG3=1.000480 STG4=1.000048
Neighbor list info ...
  update every 1 steps, delay 5 steps, check yes
  max neighbors/atom: 2000, page size: 100000
  master list distance cutoff = 12
  ghost atom cutoff = 12
  binsize = 6, bins = 5 5 5
  1 neighbor lists, perpetual/occasional/extra = 1 0 0
  (1) pair lj/charmm/coul/long, perpetual
      attributes: half, newton on
      pair build: half/bin/newton
      stencil: half/bin/3d/newton
      bin: standard
  STMD DIG: istep=0  TSC1=50000 Tlow=1.147104
Per MPI rank memory allocation (min/avg/max) = 18.72 | 18.72 | 18.72 Mbytes
Step Temp PotEng TotEng Enthalpy Press 
       0    303.06656   -6135.9847   -4916.7176   -4142.6592    2588.2629 
      50    290.59402   -6017.9277   -4848.8389   -4461.0573    1296.6474 
     100    312.22832   -5952.8696   -4696.7438   -3921.0778    2593.6385 
     150    311.15712   -5822.4971   -4570.6809   -3843.7684    2430.6187 
     200    314.72128   -5777.0155   -4510.8603   -3924.6801    1960.0439 
     250    322.39361   -5830.8805   -4533.8588   -3652.9153    2945.6606 
     300    296.06052   -5819.3621    -4628.281   -4229.6384    1332.9638 
     350    297.02076   -5890.9621   -4696.0179   -4362.0656    1116.6552 
     400    294.55104   -5858.6095   -4673.6012   -4146.9842    1760.8793 
     450    316.01718   -5873.3545   -4601.9858   -4069.7283    1779.7395 
     500    316.82077   -5831.4394   -4556.8377   -3691.0606    2894.9482 
     550    305.06019   -5831.4325   -4604.1449   -3690.1785    3056.0813 
     600    297.25663   -5888.1429   -4692.2498   -4132.6788     1871.069 
     650    292.63964    -5909.778   -4732.4595   -4246.3155    1625.5473 
     700    308.16477   -5937.8829   -4698.1052    -4167.207    1775.1944 
     750    322.44223   -5919.8993    -4622.682   -3924.1113    2335.8502 
     800    301.89777   -5848.9878   -4634.4229   -3883.2606     2511.704 
     850     299.9725   -5877.8897   -4671.0703   -4161.9701     1702.307 
     900    300.23698   -5884.4419   -4676.5585   -4387.2926    967.23497 
     950    304.72682     -5871.04   -4645.0935   -3768.8618    2929.9057 
    1000    299.08481   -5802.2749   -4599.0268   -3805.7528    2652.5153 
    1050    304.37664   -5814.3365   -4589.7988   -3710.6822    2939.5522 
    1100    324.58422   -5913.5888    -4607.754   -4086.8633    1741.7319 
    1150    306.32014    -5901.294   -4668.9375   -4061.2325    2032.0174 
    1200     299.8637   -5957.3974   -4751.0158   -4265.8985    1622.1143 
    1250    293.42215   -5976.7184   -4796.2518   -3765.3093    3447.2209 
    1300    293.82902   -5931.4341   -4749.3306   -4249.4834    1671.3674 
    1350    311.07422   -5906.0822   -4654.5995    -4069.102    1957.7612 
    1400    315.64517   -5864.2553   -4594.3832   -3632.0272    3217.8843 
    1450    305.16381   -5832.9226   -4605.2181    -3780.743     2756.844 
    1500    300.56097   -5890.2237   -4681.0368   -4039.7335    2144.3623 
    1550    298.39422   -5951.3969   -4750.9271    -4110.482    2141.4926 
    1600    292.45535   -5941.2403   -4764.6632   -4274.2097     1639.957 
    1650    302.15222   -5925.5531   -4709.9645   -4216.8168    1648.9658 
    1700    315.24164   -5914.8073   -4646.5587   -3891.7471    2523.9062 
    1750    312.44112   -5878.5231   -4621.5413   -3971.4892    2173.6158 
    1800    308.09998   -5875.6472   -4636.1302   -3953.3995    2282.8852 
    1850    295.80773   -5861.1386   -4671.0746   -4262.8614    1364.9656 
    1900    299.23843   -5921.2052   -4717.3391   -4376.4904    1139.7153 
    1950    294.21207   -5907.6044   -4723.9598   -3933.1534    2644.2641 
    2000    308.65326   -5945.9215   -4704.1786    -4216.716    1629.9565 
    2050    312.27445   -5953.4531   -4697.1418   -4178.3845    1734.5981 
    2100    297.06887   -5891.3255   -4696.1878   -4131.5152    1888.1276 
    2150    301.92413   -5866.1771   -4651.5062   -4214.6774     1460.649 
    2200    312.80603   -5818.6625   -4560.2126   -3340.2004    4079.4236 
    2250    305.09446   -5754.3394   -4526.9139   -3670.3075    2864.2831 
    2300    310.47186    -5809.793   -4560.7337   -4165.3382    1322.1063 
    2350    312.27627   -5875.3422   -4619.0235   -4063.6403    1857.0663 
    2400    300.98435   -5896.0317   -4685.1416   -4218.6586    1559.8056 
    2450    286.97101   -5891.9485   -4737.4355   -4217.7794    1737.6035 
    2500    311.27038   -5952.9946   -4700.7228   -4246.9901    1517.1717 
    2550    308.27499   -5928.4406   -4688.2195   -4331.1271    1194.0299 
    2600    300.03007   -5929.2512   -4722.2002   -4125.0013    1996.8877 
    2650    301.91342   -5922.8039    -4708.176   -4153.0336    1856.2611 
    2700    308.53486    -5925.273   -4684.0064   -4322.0582    1210.2668 
    2750    319.15493   -5946.9383   -4662.9461   -4122.3224    1807.7141 
    2800     303.0644   -5908.7255   -4689.4671   -3998.8088    2309.3934 
    2850     294.9407   -5877.7294   -4691.1535   -3646.6443    3492.5846 
    2900    299.55957   -5888.0868   -4682.9287   -3876.5128    2696.4585 
    2950    308.42144   -5889.4549   -4648.6446   -3872.2061    2596.2213 
    3000    307.63547    -5846.866   -4609.2177   -3970.9591    2134.1816 
    3050    308.30311   -5856.0286   -4615.6944   -3853.2055    2549.5772 
    3100    299.57781   -5847.3592   -4642.1277   -3691.2372    3179.5466 
    3150    304.83884   -5853.2089   -4626.8118   -4288.2357     1132.116 
    3200    311.45252   -5817.3427   -4564.3381   -3641.7767    3084.8208 
    3250    321.83222    -5844.478   -4549.7148    -3744.262     2693.238 
    3300    305.81991   -5853.4211    -4623.077   -3881.2566    2480.4667 
    3350    295.71091   -5957.1121   -4767.4376   -4640.6013    424.10963 
    3400    279.71498   -5990.0102   -4864.6889   -4771.1479    312.77848 
    3450     293.5964   -5978.9635   -4797.7958   -4648.2819    499.93808 
    3500    315.06355   -5934.1625   -4666.6303   -4370.9852    988.56539 
    3550    316.62794   -5911.2436   -4637.4178   -4029.6566    2032.2055 
    3600    303.76783   -5881.7926   -4659.7043   -4211.4079    1498.9939 
    3650    298.20204   -5845.4371   -4645.7405   -3953.6477    2314.1899 
    3700    311.23534   -5890.4989    -4638.368   -3993.2254       2157.2 
    3750    310.85948   -5978.0156   -4727.3968   -4104.6161    2082.4271 
    3800    297.92948   -6033.0632   -4834.4631   -4413.4198    1407.8662 
    3850    282.89185   -6001.7584   -4863.6562   -4383.6889    1604.8939 
    3900    293.96066    -5949.739   -4767.1058   -4589.7934    592.88973 
    3950     315.9116   -5898.7512   -4627.8072   -4209.9066    1397.3579 
    4000    318.67954   -5848.3512   -4566.2716   -3814.6664     2513.185 
    4050    308.66399   -5815.1941    -4573.408   -3747.3078     2762.278 
    4100    308.22499   -5869.9095   -4629.8895   -4104.8419    1755.6313 
    4150    304.81756   -5910.5915     -4684.28   -4194.9281    1636.2736 
    4200    308.50098   -5997.5741   -4756.4438   -4201.3512    1856.0948 
    4250     295.9522   -6003.6004   -4812.9551   -4293.6496    1736.4313 
    4300    290.44852   -5981.8372   -4813.3337   -4573.4909    801.97611 
    4350    309.03836   -5998.3215   -4755.0293   -4243.2246    1711.3502 
    4400    313.30908    -5963.196   -4702.7222   -4092.7258    2039.6796 
    4450    313.01153   -5977.1081   -4717.8314   -4368.1499    1169.2498 
    4500    300.31448   -5959.6458   -4751.4506   -4145.5488     2025.988 
    4550    307.86201   -5998.4601   -4759.9005   -4278.7078    1608.9913 
    4600    304.78391   -5947.8266   -4721.6504   -4033.7538    2300.1591 
    4650    304.02058   -5891.3731   -4668.2679   -4281.4697     1293.359 
    4700    317.66832   -5907.2613   -4629.2499   -4351.7064    928.03767 
    4750    310.45857   -5902.3816   -4653.3758   -4219.0926    1452.1373 
    4800    302.92192   -5922.0854   -4703.4003    -4170.754    1781.0396 
    4850    296.96979   -5951.8608   -4757.1216    -4353.336    1350.1608 
    4900    292.64045   -5948.7416   -4771.4198   -4340.6991    1440.2252 
    4950    301.28757   -5987.4509   -4775.3409   -4838.3925    -210.8292 
    5000    303.38603   -5993.5659   -4773.0136   -4595.0308    595.13101 
    5050    311.69435   -6016.8785    -4762.901   -4849.3943   -289.21259 
    5100    301.71061   -5998.7775   -4784.9656   -4406.1064    1266.8131 
    5150    305.86409   -6004.7202   -4774.1984   -4737.2875    123.42122 
    5200    300.15498   -5980.1384   -4772.5849   -4173.1426    2004.3894 
    5250     308.4446   -6026.3078   -4785.4043   -4860.2976   -250.42501 
    5300    313.44055   -6018.3064   -4757.3037   -4287.5235    1570.8309 
    5350    306.19454   -6002.6949   -4770.8437    -4801.395   -102.15605 
    5400    296.36679   -5960.0072    -4767.694   -4191.4882    1926.6922 
    5450    298.32781   -5886.9267   -4686.7241   -4127.4097    1870.2113 
    5500    312.15107   -5838.0482   -4582.2333    -4002.417    1938.7646 
    5550    312.64234   -5793.2688   -4535.4775    -3631.164    3023.8042 
    5600    315.60618   -5837.7855   -4568.0703   -3796.3606    2580.4096 
    5650     293.2913   -5861.3307   -4681.3905   -3868.7726    2717.1963 
    5700    300.57693   -5994.7847   -4785.5336   -4553.5153    775.81296 
    5750    303.74403   -6060.2972   -4838.3046    -4700.422    461.04597 
    5800    302.06441   -6063.3473    -4848.112   -4615.8506     776.6257 
    5850    304.23221   -6035.9497   -4811.9931   -4692.7422    398.74594 
    5900    310.98346   -6022.9108   -4771.7932   -4388.1341    1282.8627 
    5950    304.07744   -5980.1418   -4756.8078   -4191.1755    1891.3368 
    6000    304.78486    -5959.761    -4733.581    -4465.661    895.85948 
    6050    308.30265   -5944.2697   -4703.9373   -4202.2556    1677.5016 
    6100    303.88741   -5917.4868   -4694.9174   -4125.1672    1905.1061 
    6150    319.30011   -5981.8943   -4697.3181    -4491.023    689.80059 
    6200    303.15019   -5890.8327   -4671.2292   -3908.3714    2550.8109 
    6250    313.82963   -5886.4245   -4623.8565   -3886.9024    2464.1953 
    6300    307.96713   -5828.5222   -4589.5397   -3835.5467    2521.1692 
    6350    314.17513   -5851.2286   -4587.2706   -4077.5247    1704.4663 
    6400    303.07794    -5817.233   -4597.9201   -3789.2132    2704.1191 
    6450    302.68928   -5843.3804   -4625.6311   -3988.4846    2130.4631 
    6500    298.85053   -5868.7014   -4666.3959   -3982.9947    2285.1271 
    6550    301.77225   -5909.3277   -4695.2678   -4309.6271    1289.4887 
    6600    310.38508    -5954.453   -4705.7428   -4358.8928     1159.782 
    6650    300.08309   -5914.8962    -4707.632   -4255.5752    1511.5677 
    6700    304.83425   -5969.9993   -4743.6207   -4376.8567    1226.3695 
    6750    308.19153   -6032.6466   -4792.7612   -4795.7259   -9.9132904 
    6800    304.72208   -6051.9711   -4826.0437   -4717.7606    362.07248 
    6850     304.3749   -6067.7549   -4843.2242    -4622.194    739.07139 
    6900    298.19068   -6034.1891   -4834.5382   -4493.1563     1141.498 
    6950    297.16654   -5996.1926   -4800.6619      -4558.7    809.06157 
    7000    299.07102   -5959.3945   -4756.2019   -4511.5911    817.91892 
    7050    299.76772   -5908.6165    -4702.621    -4075.852    2095.7631 
    7100    299.27876   -5845.8188   -4641.7904    -3918.666    2417.9521 
    7150    303.78118   -5830.9148   -4608.7727   -3697.8344    3045.9563 
    7200    319.59957    -5888.656    -4602.875   -3979.3039    2085.0701 
    7250    303.64799   -5859.4501   -4637.8439   -3819.3175    2736.9532 
    7300    290.70486   -5857.8126   -4688.2779   -4105.1835    1949.7258 
    7350    297.99459   -5874.0343   -4675.1723    -4199.402    1590.8602 
    7400     304.6038   -5875.1418   -4649.6902   -4151.1189    1667.1012 
    7450    300.41648   -5831.7992   -4623.1937    -3932.363    2309.9698 
    7500    304.14075   -5828.4592   -4604.8705   -3779.6604    2759.3017 
    7550    310.60002   -5862.5155   -4612.9405    -3759.477    2853.7744 
    7600    308.60563   -5901.9428   -4660.3915   -4464.3977    655.35551 
    7650    306.69407   -5966.6961   -4732.8352   -4464.1881    898.29056 
    7700    302.76659   -6041.6663   -4823.6061   -4643.6094    601.86516 
    7750    297.59951   -6086.4989   -4889.2264   -4542.4744    1159.4542 
    7800    296.22065   -6067.2886   -4875.5633   -4849.8171    86.089046 
    7850    309.98861   -6039.9731    -4792.858   -4620.3117    576.95276 
    7900    312.89099   -5982.7967    -4724.005   -4472.0154    842.59203 
    7950    304.11219   -5937.9212   -4714.4475    -4082.042      2114.61 
    8000    306.64914   -5947.5043   -4713.8242   -4018.4127    2325.2868 
    8050    310.14063   -5964.2368     -4716.51    -4333.981     1279.084 
    8100    304.32892   -5946.1147    -4721.769   -4102.4717    2070.7795 
    8150    299.84598   -5937.0223    -4730.712   -4215.1065    1724.0591 
    8200    304.27757   -5967.5926   -4743.4535   -4234.0114    1703.4507 
    8250    300.21926   -5930.0921   -4722.2801   -4321.4747    1340.1956 
    8300    317.37374    -5978.802   -4701.9757   -4675.5764    88.272892 
    8350    302.92145   -5944.3826   -4725.6993   -4262.9248    1547.4054 
    8400    300.85442    -6007.019   -4796.6516    -4645.185    506.46732 
    8450       294.33   -6046.4162   -4862.2972   -4815.5485    156.31609 
    8500    301.94435   -6088.6557   -4873.9034   -4666.5344    693.39134 
    8550    308.88047   -6088.6614   -4846.0044   -4584.1262    875.65706 
    8600    316.56463   -6083.8644   -4810.2933   -4760.8251     165.4095 
    8650     300.2319   -6003.5759   -4795.7129   -4450.1176    1155.5868 
    8700    308.73013   -6036.8423   -4794.7901   -4581.8027    712.17806 
    8750     308.6119   -6045.2433   -4803.6668   -4704.8262    330.49882 
    8800    301.78513   -6033.6241   -4819.5124   -4423.9637    1322.6185 
    8850    292.32937   -5981.5659   -4805.4956   -4481.5092    1083.3314 
    8900    307.78453   -5991.0866   -4752.8386   -4707.1242    152.85783 
    8950    296.97562   -5861.0612   -4666.2986   -4015.0509    2177.6141 
    9000     309.4519   -5834.4423   -4589.4864    -3720.823    2904.5989 
    9050    309.72277   -5827.8217   -4581.7761   -4166.0937    1389.9408 
    9100    302.16769   -5823.4945   -4607.8437   -3967.5409    2141.0166 
    9150    301.57463   -5879.3928   -4666.1279   -3977.1391    2303.8111 
    9200    292.02101   -5916.2216   -4741.3919   -4206.0362    1790.0992 
    9250     301.7139   -5968.0289   -4754.2037   -4659.0452     318.1867 
    9300    317.73675   -6025.3054   -4747.0187   -4470.7301    923.84199 
    9350    300.85739   -5972.8539   -4762.4746   -4508.4334    849.45169 
    9400     291.2103   -5950.3372    -4778.769   -4216.5382     1879.963 
    9450    307.89393   -6027.2598   -4788.5717   -4752.8838    119.33174 
    9500    306.27188     -6006.58   -4774.4176   -4348.7867    1423.2063 
    9550    314.10094   -5985.1567   -4721.4972   -4468.6844    845.34474 
    9600    300.29361   -5950.9967   -4742.8855   -3827.5336    3060.7139 
    9650     307.1195   -6013.9103   -4778.3378   -4652.2335    421.66206 
    9700    308.55824   -6020.5963   -4779.2357   -4732.4924    156.29791 
    9750    312.15143   -6068.2164      -4812.4   -4877.9592   -219.21414 
    9800    293.41996   -6082.3412   -4901.8834    -4948.617   -156.26579 
    9850    290.40748   -6098.0701   -4929.7318   -4696.2716    780.63405 
    9900    301.71933   -6068.2144   -4854.3674   -4768.6785    286.52283 
    9950    300.07181   -5963.1001   -4755.8812   -3977.0343    2604.2745 
   10000    306.22951   -5902.0455   -4670.0536    -3987.778    2281.3634 
   10050    308.12468   -5882.4302   -4642.8138   -3883.9076    2537.5977 
   10100    300.59722   -5857.0916   -4647.7589   -3667.3219    3278.3429 
   10150     308.4929   -5901.1013   -4660.0035   -3926.1158    2453.9419 
   10200     301.9761   -5876.3237   -4661.4437   -4056.6436    2022.3044 
   10250    311.57384   -5886.9434   -4633.4506    -4298.762    1119.1173 
   10300    303.19349   -5807.2953   -4587.5176    -3754.352    2785.9029 
   10350     310.1929   -5821.4269   -4573.4898   -4112.1268    1542.6857 
   10400    300.34379   -5789.1376   -4580.8245   -3796.6698    2622.0226 
   10450    307.49537   -5872.2272   -4635.1426   -3958.2506     2263.362 
   10500    299.62191   -5909.8612   -4704.4523   -4471.5897    778.63571 
   10550    295.34662   -5929.3188   -4741.1098   -4704.9664    120.85485 
   10600    296.03582    -5935.613   -4744.6313    -4153.688    1975.9706 
   10650    306.55857   -5942.5034   -4709.1877   -4339.1441    1237.3357 
   10700    307.30923   -5903.6973   -4667.3615   -3902.8843    2556.2258 
   10750    295.57824   -5848.8358    -4659.695     -4235.27    1419.1738 
   10800    311.43509   -5903.1008   -4650.1663   -4089.4427    1874.9233 
   10850     310.4259   -5916.9567   -4668.0823    -4207.856    1538.8848 
   10900    304.66883    -5905.837   -4680.1239   -4073.6045     2028.053 
   10950    300.07921   -5898.8583   -4691.6096   -4250.4501      1475.13 
   11000    308.84023   -5921.0779   -4678.5828   -4556.4097    408.51701 
   11050    316.86517   -5969.9923    -4695.212   -4317.8591    1261.7761 
   11100    293.09198   -5941.9429   -4762.8045   -4714.0762    162.93559 
   11150     302.0648    -6009.265   -4794.0281   -4921.1128   -424.94041 
   11200    311.01519   -6031.2559   -4780.0107   -5026.4248   -823.94867 
   11250     311.8301   -6037.3029   -4782.7792   -4919.0539   -455.66936 
   11300    297.38791     -5996.99   -4800.5687    -4255.574    1822.3296 
   11350    299.67052   -6049.4759   -4843.8714   -4792.7005    171.10298 
   11400    300.88014   -6080.6574   -4870.1865   -4915.5439   -151.66401 
   11450     303.4066   -6079.5146   -4858.8795   -4799.9801    196.94536 
   11500    305.32427   -6054.3819   -4826.0319   -4965.9837   -467.96495 
   11550    311.33063   -6045.1226   -4792.6083   -4900.2814    -360.0324 
   11600    317.42531   -6083.6637   -4806.6299   -4607.9946    664.18816 
   11650    299.87617   -6071.2982   -4864.8664   -4939.6864   -250.17981 
   11700    300.88183   -6123.6238   -4913.1461   -4514.6748    1332.3911 
   11750    304.30833   -6123.2552   -4898.9924   -4569.1256    1102.9942 
   11800    308.40816   -6090.7255   -4849.9687    -4346.676    1682.8883 
   11850    312.63266   -6109.2299   -4851.4775   -4581.6287    902.30876 
   11900    300.44294   -6088.3456   -4879.6337   -4738.5856    471.63041 
   11950    304.52674    -6106.395   -4881.2535   -5116.6215   -787.01354 
   12000    316.22217   -6119.4537   -4847.2603   -4943.1074   -320.48929 
   12050    316.08254   -6096.5307    -4824.899   -4845.2487   -68.044436 
   12100    303.22861   -6047.8301   -4827.9111   -4477.0403    1173.2266 
   12150    302.38347   -6032.0863   -4815.5674   -4390.3994    1421.6582 
   12200    312.63939      -6030.8   -4773.0205   -4352.4367    1406.3299 
   12250    302.66447    -5945.944   -4728.2946   -4014.8364    2385.6307 
   12300    303.80167   -5902.8598   -4680.6353   -3681.4861    3340.9117 
   12350    301.19353    -5881.177   -4669.4453   -3879.5933    2641.0729 
   12400     300.7408   -5852.3638   -4642.4535   -4047.0286    1990.9558 
   12450    322.81625   -5873.5606   -4574.8386   -3844.8563    2440.8829 
   12500    305.68123   -5782.1427   -4552.3565   -3658.4217    2989.1006 
   12550    297.68347    -5795.088   -4597.4776   -3839.5703    2534.2577 
   12600    295.64886   -5849.6283   -4660.2033   -3917.8548    2482.2327 
   12650    304.14184   -5930.4662   -4706.8732    -4394.327    1045.0786 
   12700    302.50125   -5960.4175   -4743.4247    -4611.593    440.81316 
   12750    308.61421   -6022.5192   -4780.9334   -4749.6239    104.69125 
   12800    304.51403   -6054.5938   -4829.5035   -4786.9733    142.21057 
   12850    303.99137   -6102.5157    -4879.528   -5054.7381   -585.85991 
   12900    301.57757   -6134.4427    -4921.166   -4797.0945    414.86511 
   12950    302.23002    -6136.608   -4920.7064   -4774.1314    490.11136 
   13000    311.62927   -6118.2381   -4864.5224   -4967.0503   -342.82845 
   13050    300.24657   -5982.4932   -4774.5712    -4492.098    944.52168 
   13100    307.92574   -5951.2865   -4712.4705   -4132.9392    1937.8118 
   13150    310.75834   -5941.3273   -4691.1154   -4050.9711    2140.4868 
   13200    313.96031   -5972.3371   -4709.2433   -4732.5613   -77.969593 
   13250    304.68333   -6004.9338   -4779.1623    -4651.837    425.74491 
   13300    301.54281   -6070.7898    -4857.653   -4986.8268   -431.92575 
   13350    294.51573   -6090.9679   -4906.1017   -4801.4704    349.86136 
   13400    297.03969   -6105.1032   -4910.0828   -4694.7994    719.85515 
   13450    311.25197   -6152.4889   -4900.2911   -4633.4072    892.39488 
   13500    299.26313   -6072.9815    -4869.016   -4369.0354    1671.8133 
   13550    308.18166    -6065.499   -4825.6534   -4368.7899    1527.6404 
   13600    298.86646   -5996.4705   -4794.1008   -4038.2529    2527.3716 
   13650    303.04576   -5972.9074    -4753.724   -4533.6956    735.72157 
   13700    295.29664   -5886.8749    -4698.867   -4018.4645    2275.1006 
   13750    299.51914   -5883.8944    -4678.899   -3937.9425     2477.578 
   13800    296.50948   -5868.4661   -4675.5788   -3734.1154    3148.0246 
   13850    301.06281   -5897.8678    -4686.662   -3816.5378    2909.4835 
   13900    309.42829   -5928.6966   -4683.8356   -4132.0398    1845.0708 
   13950    300.64934   -5868.0036   -4658.4613     -3763.47    2992.6331 
   14000    323.83834   -5970.5746   -4667.7406   -4297.5328    1237.8848 
   14050     285.9097   -5821.3503    -4671.107   -3809.2504    2881.8386 
   14100    303.64042   -5846.7846   -4625.2088    -3784.725    2810.3734 
   14150    324.69983   -5894.8917   -4588.5918   -3772.3201     2729.414 
   14200    298.12781   -5819.7889   -4620.3909   -4225.0393    1321.9595 
   14250    297.80692   -5859.9218   -4661.8148   -4106.0625    1858.3005 
   14300    302.95671    -5896.829   -4678.0039   -4032.4274    2158.6507 
   14350    294.99381   -5857.0553   -4670.2657    -3818.267    2848.8763 
   14400    320.91162   -5979.5797   -4688.5202    -4569.293     398.6666 
   14450     305.6769   -5974.3825   -4744.6137   -4685.9953    196.00572 
   14500    300.98717   -5984.0265    -4773.125   -4583.4724    634.15225 
   14550    306.69185   -5992.4573   -4758.6054   -4417.8619    1139.3633 
   14600    324.34316    -6068.417    -4763.552   -5008.8071    -820.0734 
   14650    311.04612   -6077.0394   -4825.6698   -4662.2578    546.41001 
   14700    295.25727   -6081.3267   -4893.4772   -4891.2502     7.446622 
   14750    311.88769   -6147.7264   -4892.9711   -4946.2795   -178.25041 
   14800    304.78018   -6099.3558   -4873.1947   -4626.5078    824.86071 
   14850    290.50449   -6040.0202   -4871.2915   -4515.2149    1190.6335 
   14900    300.20065   -6060.3845   -4852.6473   -4574.9876    928.42637 
   14950    297.39298   -5989.6543   -4793.2126    -4520.431    912.11544 
   15000    322.24127   -6029.8564   -4733.4476   -4688.9541    148.77521 
   15050    310.37159   -6001.9012   -4753.2453   -4368.7071    1285.8019 
   15100    293.24026   -5993.4266   -4813.6917   -4432.3067    1275.2586 
   15150    305.01012   -6045.0164   -4817.9302   -4653.6293    549.38211 
   15200    310.59898   -6048.4513   -4798.8806   -4742.6557    188.00244 
   15250    302.82176   -6025.8834   -4807.6012   -4661.0132    490.15447 
   15300    306.68914   -6051.2543   -4817.4132   -4976.0492   -530.43999 
   15350     294.4453   -5978.5722   -4793.9893   -4389.3938     1352.869 
   15400    305.98639   -5972.7547   -4741.7409   -4642.3554    332.32083 
   15450    301.80229   -5876.8715   -4662.6907   -4002.9609    2205.9762 
   15500     305.7293   -5838.0488   -4608.0693   -3811.8442     2662.383 
   15550    303.54846   -5826.2867    -4605.081   -3672.7632    3117.4438 
   15600    304.42831   -5860.9018   -4636.1563   -3837.2944    2671.1998 
   15650    304.03158   -5890.1217   -4666.9722   -4106.6064    1873.7267 
   15700    306.67933   -5947.7364   -4713.9348   -4523.8663     635.5427 
   15750    297.68434   -5941.0396   -4743.4258    -4239.134    1686.2289 
   15800    294.12099    -5911.677   -4728.3988   -4433.0323     987.6336 
   15850    303.75741   -5901.1396   -4679.0932   -3877.5717    2680.0931 
   15900    321.13999   -5922.9775   -4630.9992   -4393.8825    792.86062 
   15950    301.74815   -5847.0153   -4633.0523   -3770.7007     2883.494 
   16000    311.68606   -5918.6087   -4664.6645   -4080.2984     1953.978 
   16050    302.15724   -5935.3553   -4719.7465   -4218.4147    1676.3314 
   16100    300.74097   -5982.6299    -4772.719   -4633.0843    466.90435 
   16150     306.7368   -6017.9316   -4783.8987   -4681.2862    343.11137 
   16200    303.26365   -5990.7787   -4770.7188   -4588.2654    610.07962 
   16250    302.70398    -5965.895   -4748.0867    -4385.464    1212.5219 
   16300    291.75169   -5898.6666   -4724.9204   -4064.5943    2207.9697 
   16350    300.00799   -5896.6683   -4689.7061    -4024.997    2222.6257 
   16400    302.97253   -5869.2828    -4650.394   -3901.6055    2503.7665 
   16450    306.14188   -5834.8919   -4603.2525   -3855.2515    2501.1333 
   16500    312.86774   -5843.3678   -4584.6696   -4031.8473    1848.5033 
   16550    302.40471   -5837.6938   -4621.0894   -3914.9426     2361.183 
   16600    296.50302   -5895.8613        -4703   -4003.9621    2337.4126 
   16650    310.35026   -5969.0193   -4720.4492   -4364.5044     1190.193 
   16700    317.24348   -5977.6789   -4701.3766   -4438.2901    879.69741 
   16750    293.70708   -5909.1422   -4727.5292   -4309.1669    1398.9019 
   16800    305.78404   -5969.5197   -4739.3199   -4606.6565    443.59421 
   16850    299.49047   -5936.0193   -4731.1392   -4335.7542    1322.0712 
   16900    313.03583   -5997.1925   -4737.8181   -4653.1367    283.15392 
   16950    309.78038   -6053.9617   -4807.6842   -4731.4762    254.82115 
   17000    294.14385   -6091.6219   -4908.2518   -4909.8346   -5.2924626 
   17050    292.88102   -6121.3475   -4943.0579   -5287.0361   -1150.1796 
   17100     306.3266   -6138.1312   -4905.7487   -5069.0498   -546.03896 
   17150    303.38561   -6090.2458   -4869.6952   -4957.3907   -293.23235 
   17200    305.05383   -6068.6242   -4841.3622   -5043.2699   -675.13042 
   17250    308.46361   -6076.5218   -4835.5418   -4630.3662    686.05726 
   17300    315.99547   -6136.6003   -4865.3189    -5120.554   -853.44381 
   17350    301.24033   -6140.9651   -4929.0451   -5222.5589   -981.43858 
   17400    295.22764   -6151.0817   -4963.3514   -4920.9439    141.80023 
   17450    306.79353   -6163.5958   -4929.3348     -4957.26    -93.37537 
   17500    307.15928   -6098.5995    -4862.867   -4771.4978    305.51627 
   17550     306.9898   -6047.0455   -4811.9949   -4419.0784     1313.817 
   17600    305.28715   -6008.3824   -4780.1816   -4319.4394    1540.6101 
   17650    307.93996   -6031.9171   -4793.0439   -4603.3028    634.44818 
   17700    293.14029   -6031.2045   -4851.8718   -4820.2965    105.58034 
   17750    310.83686   -6119.4156   -4868.8878   -4986.8827   -394.54611 
   17800    301.23616   -6082.7939   -4870.8907   -5037.2679    -556.3247 
   17850     299.0372   -6071.9839   -4868.9273   -4739.6206    432.37021 
   17900    299.30561      -6054.5   -4850.3636   -4572.5768     928.8514 
   17950    313.17553    -6100.586   -4840.6496   -4945.9746   -352.18141 
   18000    313.51008   -6081.2084    -4819.926   -5015.4558   -653.80384 
   18050    299.17129    -6001.655    -4798.059   -4566.3352    774.82804 
   18100    305.95359   -5968.6629    -4737.781   -4270.2685     1563.248 
   18150    316.04499   -5920.3127   -4648.8321   -3963.7062    2290.8941 
   18200     305.5186    -5831.769   -4602.6371   -3747.4715    2859.4658 
   18250    307.86445   -5830.1642   -4591.5948   -3833.6063     2534.529 
   18300    304.25747   -5789.7499   -4565.6917   -3830.1123    2459.5985 
   18350    313.20004    -5841.182    -4581.147   -3898.3465    2283.1186 
   18400    307.51031   -5866.1047     -4628.96   -4129.2925    1670.7666 
   18450    297.73187   -5847.4028   -4649.5977   -4062.4475    1963.2876 
   18500    312.69511   -5922.1985   -4664.1948    -4281.463     1279.762 
   18550    292.71968   -5867.6394   -4689.9989   -4128.6215    1877.1092 
   18600    304.72635   -5925.2928   -4699.3482   -4073.7549    2091.8317 
   18650     307.8618   -5917.5439   -4678.9851   -4278.2669    1339.9041 
   18700    310.12927   -5935.3506   -4687.6695   -4162.6304    1755.6031 
   18750    306.42336    -5919.757   -4686.9852   -4595.3932    306.26142 
   18800    305.88699   -5885.3049    -4654.691   -4264.5754    1304.4516 
   18850     308.3286   -5862.7046   -4622.2679   -3783.4922    2804.6615 
   18900     311.3086   -5888.5938   -4636.1682   -4125.8702    1706.3123 
   18950    296.42049   -5870.9241   -4678.3949   -4098.4169     1939.305 
   19000    306.07797   -5959.0841   -4727.7018   -4505.9349    741.53452 
   19050    306.66777   -5975.6673   -4741.9122    -4702.536    131.66422 
   19100     313.3115   -6003.9519   -4743.4685   -4869.5559    -421.6057 
   19150    307.12477   -6028.0524   -4792.4588   -4816.2327   -79.494192 
   19200     312.8457   -6102.1658   -4843.5563   -4982.5342   -464.70835 
   19250    300.01892   -6119.4037   -4912.3976   -4993.5088   -271.21594 
   19300    294.75601   -6163.9966   -4978.1637   -4869.0475    364.85804 
   19350      293.425   -6147.7828   -4967.3047   -4848.5687    397.02436 
   19400    317.77552   -6169.9074   -4891.4647   -4805.7952    286.45802 
   19450    314.15494   -6115.0229   -4851.1462   -5089.0263   -795.41337 
   19500    318.55765     -6149.96   -4868.3707   -4914.0726   -152.81576 
   19550    300.68483    -6117.705   -4908.0199   -4993.7607   -286.69625 
   19600    303.16837    -6161.502   -4941.8253   -5073.1695   -439.18309 
   19650    298.65185   -6161.4585   -4959.9522   -4809.9028     501.7286 
   19700    305.87923   -6175.9858    -4945.403   -4846.1059    332.02546 
   19750     299.0344   -6095.8821   -4892.8368   -4855.6296    124.41192 
   19800    310.50269   -6046.1233   -4796.9399   -4578.6822    729.80068 
   19850    325.11066   -5995.1204   -4687.1678   -4565.0226    408.42351 
   19900    308.71359   -5896.2975   -4654.3118   -3947.9205    2362.0007 
   19950    301.09945   -5903.2041   -4691.8509    -4095.009    1995.6942 
   20000     308.1695   -5955.4255   -4715.6288   -4490.8933    751.46071 
   20050    306.15754   -5938.3295   -4706.6271   -4564.6569    474.71365 
   20100    310.94925   -5947.2339    -4696.254   -4178.5871    1730.9522 
   20150    323.31842   -6031.4864   -4730.7441   -4479.1721    841.19533 
   20200    299.32025   -6030.9405   -4826.7452   -4775.1112     172.6516 
   20250    297.15004   -6058.2357   -4862.7714   -5021.1143   -529.46018 
   20300    306.80453   -6072.5884   -4838.2831   -4610.4826    761.70958 
   20350    311.07798   -6040.8295   -4789.3317    -4576.197    712.67058 
   20400    299.47126   -5953.9431   -4749.1403   -4746.4082    9.1355243 
   20450    310.63891   -5973.4675   -4723.7361   -4470.9597    845.22281 
   20500    310.37975   -5988.9244   -4740.2357   -4689.1625    170.77617 
   20550    300.39425   -5973.0559   -4764.5398   -4483.9225    938.31607 
   20600    311.87947   -6069.0222      -4814.3   -4665.2313    498.44923 
   20650    301.34729   -6088.3687   -4876.0185   -5198.1576    -1077.155 
   20700    299.02252   -6097.4645    -4894.467   -5019.3089   -417.44119 
   20750    316.36886   -6182.4091   -4909.6255   -5034.7065    -418.2404 
   20800     305.3484   -6166.2659   -4937.8187   -5074.9419   -458.50656 
   20850    298.88558   -6143.7931   -4941.3465   -4901.6397    132.76971 
   20900    299.59829   -6110.1167   -4904.8028   -4533.3511    1242.0441 
   20950    316.95387   -6122.2199   -4847.0828   -4946.4936   -332.40558 
   21000    307.77061   -6063.8887   -4825.6968   -4719.2126    356.05718 
   21050    309.33199   -6084.9785    -4840.505    -4501.146    1134.7336 
   21100    288.11073   -6054.7982   -4895.6999   -4825.1074    236.04409 
   21150    308.82685   -6159.0601   -4916.6188   -5006.3194   -299.93676 
   21200    311.63716   -6178.0853   -4924.3378   -5098.7371   -583.14875 
   21250    298.02369    -6117.035   -4918.0559    -4698.082     735.5393 
   21300     309.6984   -6111.7339   -4865.7863   -4745.8051    401.18782 
   21350    313.36577   -6059.7745   -4799.0727   -4748.5305    169.00076 
   21400    311.61546   -6032.5739   -4778.9138   -4632.5196    489.50657 
   21450    296.19107    -5988.818   -4797.2117   -4396.0345    1341.4388 
   21500    300.27494   -6026.6169   -4818.5808   -4515.9606    1011.8884 
   21550    302.31048   -6051.6011   -4835.3758   -4922.8922   -292.63348 
   21600    302.73425   -6076.2367   -4858.3066   -4805.3601    177.04039 
   21650    309.74045   -6100.6985   -4854.5817   -4832.2805    74.569647 
   21700    303.42515    -6109.604   -4888.8943   -4683.0444    688.31202 
   21750    308.08472   -6175.3162   -4935.8606   -5247.7916   -1043.0215 
   21800    298.61611   -6178.9551   -4977.5926   -5207.8571   -769.94826 
   21850    303.29995   -6189.9626   -4969.7566   -5282.5966    -1046.061 
   21900    292.72607   -6100.5345   -4922.8682   -4611.0657    1042.5919 
   21950    316.39485   -6135.3523   -4862.4641   -4509.1656    1181.3442 
   22000    306.48959   -6122.0374   -4888.9992   -4868.5063      68.5232 
   22050    303.02072   -6159.6859   -4940.6032   -5527.6788   -1963.0378 
   22100    302.53415   -6170.1635   -4953.0383   -5198.7836   -821.71251 
   22150    299.56382   -6102.0961   -4896.9209   -4568.8856    1096.8704 
   22200    306.86197   -6050.4188   -4815.8824   -4061.4759    2522.5517 
   22250    305.74212   -6013.8694   -4783.8383   -4002.8311    2611.4979 
   22300    311.24668   -6045.0955    -4792.919   -4355.7426    1461.8112 
   22350    305.47018   -6017.2324   -4788.2953   -4485.8006    1011.4687 
   22400     307.4224   -6003.1822   -4766.3912   -4427.4623    1133.2957 
   22450    317.01815   -6033.7956   -4758.3999   -4504.5741    848.73142 
   22500    313.64492    -6058.632   -4796.8072    -4700.006    323.67952 
   22550    304.90412   -6092.6517   -4865.9919   -4944.7155    -263.2324 
   22600    304.98055   -6152.5796   -4925.6123   -4965.2715   -132.61048 
   22650    299.45907   -6194.5731   -4989.8193   -5086.4178   -323.00188 
   22700    289.03972   -6169.5669   -5006.7312   -4866.4159    469.18005 
   22750    306.87501   -6184.9317   -4950.3428   -5038.2985    -294.1022 
   22800     312.0697   -6148.3755   -4892.8879   -4820.7752    241.12752 
   22850    308.90565   -6135.5943    -4892.836   -5208.4882   -1055.4641 
   22900    308.68093    -6168.602   -4926.7477   -5209.1117   -944.15638 
   22950    304.86542   -6197.3473   -4970.8433   -5180.8973   -702.36962 
   23000    299.90928   -6205.0692   -4998.5042   -5232.6982   -783.08776 
   23050    296.17507   -6168.7845   -4977.2426   -5279.2743   -1009.9207 
   23100    299.61452   -6125.5586   -4920.1794   -4486.6299     1449.684 
   23150    304.81495   -6078.9862   -4852.6851   -4599.6213    846.18383 
   23200    304.60688   -6030.1049    -4804.641   -4423.9207    1273.0359 
   23250    314.31603   -6062.7814   -4798.2566   -4848.8206   -169.07369 
   23300    298.16538   -6002.1115   -4802.5623   -4468.2114    1117.9882 
   23350    302.30995   -5975.5335   -4759.3104   -4254.7115    1687.2558 
   23400    306.21014   -5915.1896   -4683.2756   -3831.1539    2849.2874 
   23450    297.14237   -5825.9444    -4630.511   -4017.8997    2048.4228 
   23500    309.79595   -5840.9836   -4594.6435   -3734.1226    2877.3726 
   23550     307.5104   -5825.4565   -4588.3114   -3979.3738    2036.1392 
   23600    299.37617   -5827.0047   -4622.5845   -4139.6232     1614.905 
   23650    313.24994   -5919.8483   -4659.6125   -4115.3889    1819.7513 
   23700    283.94807   -5824.2776   -4681.9261   -4077.7409    2020.2484 
   23750    294.03283   -5838.8753   -4655.9519   -3947.3542    2369.3782 
   23800    315.73669   -5876.4304   -4606.1901   -3969.8433     2127.789 
   23850    318.41274   -5859.7479   -4578.7416   -3815.6874    2551.4674 
   23900       308.25   -5898.6565   -4658.5359   -4317.6411    1139.8692 
   23950    299.32723   -5956.3809   -4752.1575   -4400.8139    1174.8077 
   24000    304.73213   -6024.6678      -4798.7   -4780.3583     61.33016 
   24050    291.86301   -5961.8315   -4787.6375    -4357.739     1437.476 
   24100     316.2742   -6013.7251   -4741.3224   -4489.4415    842.22838 
   24150    302.10275   -5936.4431   -4721.0535   -4447.3915    915.05924 
   24200    301.96176   -5928.9629   -4714.1405   -4279.3463    1453.8462 
   24250    300.89682   -5913.2382   -4702.7002   -4001.3353    2345.1936 
   24300    302.42801   -5902.8834   -4686.1853    -4066.393    2072.4344 
   24350    309.93791   -5913.4732    -4666.562    -4478.622    628.42567 
   24400    303.39086   -5874.0882   -4653.5164   -3980.4367    2250.6147 
   24450    314.23104   -5940.2277   -4676.0448   -4413.9505    876.37935 
   24500    306.79808   -5958.3604   -4724.0811   -4572.2849     507.5695 
   24550    308.53506   -5984.9879   -4743.7205   -4703.9129    133.10698 
   24600     302.9041   -5932.3163   -4713.7028   -4585.0101    430.31716 
   24650    301.01268   -5826.9486   -4615.9445   -3791.0657    2758.1938 
   24700    316.92293   -5813.4979   -4538.4852   -3880.1915    2201.1741 
   24750    308.22912   -5805.6652   -4565.6286   -3640.6008    3093.0679 
   24800    294.17361   -5860.1177   -4676.6278    -3729.928    3165.5337 
   24850    305.54249    -5978.662    -4749.434   -4558.5173    638.37907 
   24900    303.51069   -5986.4778   -4765.4239   -4365.6974    1336.5882 
   24950    311.35999   -6023.7502   -4771.1178   -4850.3915   -265.07186 
   25000     302.8876   -5996.6356   -4778.0886   -4508.0913    902.80528 
   25050    303.97861   -6020.4487   -4797.5124   -4560.4665    792.62391 
   25100    309.52264   -6098.4787   -4853.2381   -4842.7513    35.065321 
   25150    291.21418   -6089.1562   -4917.5725   -4784.0799    446.36649 
   25200    315.49465   -6175.7282   -4906.4617   -4845.9702      202.269 
   25250    303.36952   -6114.0597   -4893.5738   -5101.8491   -696.42185 
   25300    319.73526   -6151.6117   -4865.2848   -4747.1763    394.92587 
   25350     317.9105    -6169.713   -4890.7272   -5065.8892   -585.69891 
   25400    309.66594   -6187.5762   -4941.7592   -5249.7602   -1029.8806 
   25450    298.68564   -6178.0984   -4976.4562   -5051.0726   -249.49908 
   25500    293.65392   -6163.5716   -4982.1725   -5186.0499   -681.71645 
   25550     303.9914   -6176.1973   -4953.2095   -5001.2292   -160.56631 
   25600    304.12669   -6149.7859   -4926.2538   -4950.5167   -81.129203 
   25650    305.66997   -6147.1248    -4917.384   -4943.8632   -88.540163 
   25700    303.15216   -6108.9161   -4889.3047   -4697.2464    642.19599 
   25750    301.60409   -6047.0138   -4833.6304   -4343.1402      1640.08 
   25800    306.51846   -6002.4814    -4769.327   -4670.9767    328.85966 
   25850    303.75805   -5957.5312   -4735.4822   -4033.6562    2346.7353 
   25900    304.20111   -5982.0154   -4758.1839   -4271.1379    1628.5635 
   25950    295.08771   -6008.8798   -4821.7124   -4688.1772     446.5094 
   26000    292.07087    -6056.577   -4881.5467   -4743.0313    463.16188 
   26050     302.2778   -6095.7641   -4879.6702   -4630.6599    832.63013 
   26100    310.00676   -6081.1746   -4833.9864   -4755.3421    262.96741 
   26150    301.92629   -6010.0793   -4795.3997   -4387.4582     1364.057 
   26200    309.14311    -6022.178   -4778.4643   -4597.4831    605.15734 
   26250    309.26078   -6001.3797   -4757.1926    -4447.567    1035.3129 
   26300    312.31628    -6023.502   -4767.0224   -4587.1602     601.4154 
   26350    307.56812   -6043.5495   -4806.1722   -4673.9973    441.96061 
   26400    292.65293   -6007.0468   -4829.6748   -4405.8839    1417.0538 
   26450    307.04412   -6054.4245   -4819.1554   -4794.0979    83.786191 
   26500    310.93923   -6077.1752   -4826.2356   -5028.4366   -676.11076 
   26550    305.48938   -6105.3467   -4876.3324   -4894.9794   -62.351116 
   26600    299.27038     -6095.82   -4891.8254   -5016.1478   -415.70405 
   26650    301.74756   -6074.1398   -4860.1792   -4679.2771     604.8927 
   26700    305.00034   -6084.5106   -4857.4638   -4663.1161    649.85135 
   26750    301.41373   -6080.9262   -4868.3086   -4643.7158    750.98351 
   26800    311.18644   -6107.4812   -4855.5471   -5156.1107   -1005.0116 
   26850     306.1491   -6053.2673   -4821.5989   -4483.4206    1130.7859 
   26900    297.22965   -5970.3805   -4774.5959   -4058.6169    2394.0594 
   26950    307.55295   -5937.8629   -4700.5466   -3977.9753    2416.1028 
   27000    318.75432   -5920.9223   -4638.5418   -4349.7608    965.61329 
   27050     301.9259   -5821.0378   -4606.3597   -3979.5229    2095.9898 
   27100    309.67315   -5846.7726   -4600.9266   -3805.9035    2658.3637 
   27150    308.84697   -5872.8255   -4630.3032   -4054.0716    1926.7783 
   27200    299.37052   -5874.8038   -4670.4063   -4218.3054    1511.7155 
   27250    299.50719    -5893.887   -4688.9397   -4327.5043     1208.552 
   27300    306.37062   -5929.4713   -4696.9117   -4322.4522    1252.1014 
   27350    310.28128   -5953.3885   -4705.0959   -4256.2923      1500.69 
   27400    303.24084    -5947.791   -4727.8228   -4209.9424    1731.6659 
   27450    301.52917   -5948.8561   -4735.7741   -4276.4716    1535.7958 
   27500    301.49082    -5960.672   -4747.7443    -4213.192    1787.4128 
   27550    299.79614   -5921.0636   -4714.9537   -4187.1784    1764.7523 
   27600    305.95967   -5916.1596   -4685.2532   -3899.8704    2626.1291 
   27650    309.77918   -5932.4077   -4686.1351   -4438.3383    828.57193 
   27700    303.99465   -5894.2715   -4671.2706   -4206.2442    1554.9351 
   27750    309.58312   -5889.3514   -4643.8675   -4057.7048    1959.9856 
   27800    309.47052   -5891.8098    -4646.779   -4097.7107    1835.9505 
   27850    307.68011   -5933.8594   -4696.0315   -4427.4401     898.1042 
   27900    307.36681   -5976.5876   -4740.0202   -4611.1482    430.91657 
   27950    304.62291   -6009.8554    -4784.327   -4810.5414    -87.65451 
   28000    297.98961   -5999.7856   -4800.9436   -4618.7716     609.1388 
   28050    307.11587    -6012.416   -4776.8582   -4750.2523    88.963572 
   28100    305.78705   -5973.1639    -4742.952   -4438.9455     1016.524 
   28150     301.4393   -5930.3781   -4717.6576    -4199.069    1734.0342 
   28200     311.0914   -5955.8505   -4704.2987   -4213.5241    1641.0307 
   28250    307.79909   -5969.4273   -4731.1208   -4472.2633    865.55654 
   28300     306.0678   -6014.3131   -4782.9717   -4892.2887   -365.52933 
   28350    298.04555   -6000.3925   -4801.3254   -4675.7757    419.80763 
   28400    297.29026   -5974.0896   -4778.0611   -4362.3255    1390.1186 
   28450    312.71687   -6014.0845   -4755.9932   -4801.3135   -151.53997 
   28500    299.94762   -5946.1003    -4739.381   -4070.4525    2236.7343 
   28550    313.00386   -5957.7081   -4698.4623   -4097.9063    2008.1129 
   28600    296.51979   -5848.5583   -4655.6295    -3691.749    3222.9817 
   28650    307.04501   -5860.0824   -4624.8096   -3936.7009    2300.8683 
   28700    310.85448   -5860.6826    -4610.084   -3761.6215    2837.0521 
   28750    303.61152   -5844.2132   -4622.7537   -3660.5043    3217.5278 
   28800    289.56076   -5799.2002   -4634.2683   -3890.9985    2485.3133 
   28850    305.25607   -5851.6123   -4623.5366   -4197.1548    1425.7171 
   28900    313.03088   -5857.8035    -4598.449    -3572.301    3431.1892 
   28950    303.06706   -5837.1073   -4617.8382   -3858.7111    2538.3364 
   29000    308.08926   -5899.3822   -4659.9083   -4393.1255    892.05672 
   29050    312.38061   -5958.8476   -4702.1091   -4245.8761    1525.5322 
   29100    315.15015   -6047.2698   -4779.3893   -4662.2295    391.75385 
   29150    298.61499   -6081.1671   -4879.8092   -4745.8384    447.96591 
   29200    300.15321   -6130.6382   -4923.0918   -5087.5981   -550.06876 
   29250    302.45258   -6132.8863   -4916.0894   -4967.2081   -170.92879 
   29300    310.61001   -6137.5945   -4887.9793    -5021.337   -445.91538 
   29350    304.18337   -6136.1827   -4912.4227   -4971.1355    -196.3215 
   29400    304.09205   -6176.3106   -4952.9179   -5493.2925   -1806.8813 
   29450    302.97603   -6209.3657   -4990.4628    -5082.753   -308.59593 
   29500    291.69677   -6180.3435   -5006.8182   -5371.1195   -1218.1348 
   29550    305.20623   -6202.7455   -4974.8703   -5464.7083   -1637.8992 
   29600     313.3262   -6213.7835   -4953.2409   -5381.4677   -1431.8865 
   29650    302.68073    -6171.726   -4954.0112   -5054.0044   -334.35317 
   29700    297.34485   -6142.8059   -4946.5578    -5161.669   -719.27961 
   29750    305.17954   -6172.8799   -4945.1121   -5262.8884   -1062.5667 
   29800    298.88024   -6106.2564   -4903.8313   -4935.1061    -104.5754 
   29850    305.80821   -6029.3629   -4799.0659   -4761.4977    125.61908 
   29900    326.59995   -6034.1345   -4720.1902    -4641.646    262.63259 
   29950    298.02171   -5947.2772    -4748.306   -4071.0691    2264.5155 
   30000    311.27264   -6063.5305   -4811.2495   -4827.8014   -55.345561 
   30050    288.52954   -6032.8317   -4872.0485   -4909.2745   -124.47439 
   30100    313.35318   -6117.6871    -4857.036   -4931.6246   -249.40621 
   30150    312.00194   -6096.8098   -4841.5947   -4926.4934   -283.88033 
   30200    298.98462   -6065.8985   -4863.0535   -5010.6134   -493.40421 
   30250    312.47932   -6127.3204   -4870.1849   -5327.5434   -1529.2955 
   30300    312.11697   -6146.6117    -4890.934   -5014.1054   -411.85543 
   30350    303.83005   -6157.4363   -4935.0976   -5049.6971   -383.19268 
   30400    308.63375   -6208.9893   -4967.3249   -5341.0313   -1249.5835 
   30450    302.91937   -6192.9887   -4974.3138   -5733.1885   -2537.4922 
   30500    301.69052   -6169.6907   -4955.9596   -5049.3136   -312.15305 
   30550    315.30584   -6188.4117   -4919.9048   -5343.7069   -1417.0913 
   30600    300.27272   -6115.7508   -4907.7236   -4622.0571    955.19919 
   30650    302.47987    -6112.068   -4895.1613   -4799.7752    318.94771 
   30700    308.61136    -6129.349   -4887.7747   -4866.4081    71.444572 
   30750     299.2373   -6086.8268   -4882.9652   -4532.1159    1173.1548 
   30800     283.4839   -5975.2065   -4834.7224   -4530.9038    1015.8956 
   30850    308.82268    -5970.446   -4728.0215   -4127.8333    2006.8832 
   30900    311.30713   -5879.3468   -4626.9271   -4162.3576    1553.4075 
   30950    317.84598    -5897.928   -4619.2018   -4137.1951    1611.7131 
   31000    303.99298   -5933.7561   -4710.7619   -3966.5484    2488.4691 
   31050    290.10123   -5974.1681   -4807.0619   -4721.0094    287.73842 
   31100    297.94814   -6026.9532    -4828.278   -4872.8774   -149.12959 
   31150     307.6357    -6035.032   -4797.3828   -4766.4491    103.43477 
   31200    313.82343   -6019.4875   -4756.9445   -4567.4216    633.71834 
   31250    299.47503   -5909.2052   -4704.3872   -4209.6034    1654.4367 
   31300     307.4281   -5857.8345   -4621.0205   -3863.5981    2532.6362 
   31350    323.26105   -5852.1239   -4551.6124   -3753.0379    2670.2387 
   31400    310.22504   -5834.7356   -4586.6693   -3813.4327    2585.5148 
   31450    307.36127   -5926.5748   -4690.0297   -4304.4723    1289.2101 
   31500      289.821   -5947.9635   -4781.9847   -4521.6239    870.58318 
   31550    312.52266   -6074.1118   -4816.8019   -5019.9792   -679.37563 
   31600    303.52239    -6049.364   -4828.2631   -4651.0589    592.52799 
   31650    299.40578   -6043.8793   -4839.3399   -4729.0716    368.71028 
   31700    299.03798    -6049.029   -4845.9693   -4594.6251    840.43385 
   31750    308.30717   -6097.3204   -4856.9698   -5149.7684   -979.04724 
   31800     305.9744   -6105.0222   -4874.0566   -4976.5732   -342.79035 
   31850    308.55968   -6115.7721   -4874.4057    -4758.621    387.15592 
   31900     303.3093   -6079.4414   -4859.1977   -4593.7331    887.64932 
   31950    301.91958   -6062.9083   -4848.2557   -4559.2715    966.29278 
   32000    309.28863   -6077.3251    -4833.026   -4554.1068    932.63786 
   32050    292.24161   -5965.7992    -4790.082   -4009.6808    2609.4717 
   32100    301.72341   -5894.4104    -4680.547   -4186.0098    1653.6118 
   32150    322.94308   -5854.1038   -4554.8715   -3885.4279    2238.4563 
   32200    316.87949   -5786.5306   -4511.6928   -3368.1419     3823.756 
   32250    309.42237   -5841.8239   -4596.9868   -3878.4826    2402.5033 
   32300      295.591   -5951.4282    -4762.236   -4574.3121    628.37178 
   32350    290.19441   -6044.7707   -4877.2896   -5037.1515   -534.53947 
   32400    305.61227   -6140.8306   -4911.3219   -5549.8307   -2135.0183 
   32450    303.56742   -6153.5302   -4932.2481   -4945.0751    -42.89045 
   32500    308.07828   -6189.9069   -4950.4772   -5655.6537   -2357.9389 
   32550    306.92277   -6221.5162   -4986.7352   -5382.6705   -1323.9112 
   32600    290.93167   -6190.7455   -5020.2983   -5544.5472   -1752.9606 
   32650    304.02109   -6224.0974   -5000.9901   -5126.0117   -418.04166 
   32700    307.17163   -6211.9128   -4976.1306   -5225.6852   -834.44986 
   32750    306.65029   -6203.1389   -4969.4542   -5407.7773    -1465.646 
   32800    297.14154   -6140.3027   -4944.8726   -5268.9185   -1083.5308 
   32850    304.34477   -6087.0936   -4862.6842   -4952.1232   -299.06242 
   32900    301.76222    -6005.997   -4791.9774   -4353.6481    1465.6664 
   32950    302.28441   -5988.4178   -4772.2974   -3930.5219    2814.6927 
   33000    290.93303   -5910.8837   -4740.4311    -3793.515    3166.2568 
   33050    319.96737   -5963.1682   -4675.9075   -3846.2905    2774.0374 
   33100    303.25962   -5861.8853   -4641.8415   -4074.2236    1897.9763 
   33150     310.2827   -5906.5189   -4658.2205   -4198.1128    1538.4883 
   33200    316.26111    -5975.397    -4703.047   -4386.1205    1059.7249 
   33250    297.76229   -5989.9581   -4792.0307   -4623.4065    563.83823 
   33300    303.84475   -6048.7784   -4826.3806   -4509.4728    1059.6626 
   33350    296.35874   -5997.8366   -4805.5558   -4511.6379    982.78972 
   33400    306.03607   -6011.0791   -4779.8654   -4397.6533     1278.024 
   33450    303.97884   -5951.0461   -4728.1089   -4492.0594     789.2919 
   33500    311.18021   -5947.6923   -4695.7833   -4195.6414    1672.3526 
   33550     295.9885   -5886.7832   -4695.9919   -3924.3505    2580.1811 
   33600    307.88434   -5923.3443   -4684.6948    -4280.223    1352.4553 
   33650    306.27327   -5895.7812   -4663.6132   -3788.0384    2927.7092 
   33700    304.00794   -5877.2929   -4654.2385   -3794.6932    2874.1103 
   33750    297.13369   -5895.8502   -4700.4517   -4171.4606    1768.8175 
   33800    299.06187   -5933.0437   -4729.8879   -4248.1665    1610.7591 
   33850    311.69417   -5972.5962   -4718.6194    -4344.555    1250.7802 
   33900    305.05681   -5939.4477   -4712.1736   -4138.4198    1918.4932 
   33950    311.01433   -5954.7942   -4703.5525   -4566.6034    457.92436 
   34000    302.48623   -5907.3835   -4690.4512   -4040.2442     2174.134 
   34050    305.66594   -5874.1821   -4644.4574   -4188.2207    1525.5446 
   34100    305.48607   -5829.8192   -4600.8183   -4007.5801    1983.6442 
   34150    304.17898   -5818.2513   -4594.5089   -3813.4939    2611.5242 
   34200     303.0588   -5805.9776   -4586.7418   -3832.0956    2523.3532 
   34250    314.43005   -5870.1142   -4605.1307   -4201.2049    1350.6294 
   34300    298.21862   -5826.3836   -4626.6203   -3832.3137     2655.968 
   34350    303.52103   -5871.2368   -4650.1413   -3987.8657    2214.4884 
   34400    310.08021   -5909.6651   -4662.1814   -4151.7698    1706.6923 
   34450    300.33158   -5888.9287   -4680.6647   -4131.7262    1835.5168 
   34500     304.4193   -5916.9579   -4692.2486   -4428.4746    881.99601 
   34550    311.61036   -5950.7163   -4697.0767    -4478.615    730.48256 
   34600    309.11133   -5967.7999   -4724.2141   -4641.6898    275.94132 
   34650    295.49369   -5948.9212   -4760.1206   -4273.8015    1626.1328 
   34700    305.82436   -6030.6039    -4800.242    -4562.323    795.54327 
   34750    298.10601   -6017.8067   -4818.4964    -4663.891    516.96283 
   34800    306.17212   -6028.3811   -4796.6201   -4521.2322    920.82999 
   34850    305.47656   -6007.8651   -4778.9024   -4500.8923    929.59812 
   34900    302.36131   -5974.2488   -4757.8191   -4620.3688    459.60042 
   34950    308.68616   -5969.5226   -4727.6473   -4456.1712    907.75018 
   35000    311.71003   -6012.3991   -4758.3585   -4835.3989   -257.60431 
   35050    307.23835   -6026.2738   -4790.2232   -4888.6329   -329.05823 
   35100     316.0056   -6068.4353   -4797.1132   -4865.6792   -229.26818 
   35150    308.93388    -6083.977   -4841.1051   -4813.4947    92.322578 
   35200    303.86097   -6159.1115   -4936.6485   -5391.1906   -1519.8785 
   35250    296.40523   -6227.3859    -5034.918   -5624.0181   -1969.8073 
   35300    292.64583   -6236.0282   -5058.6848   -5179.8736   -405.22597 
   35350    312.81164   -6247.2374   -4988.7649   -5213.3486    -750.9532 
   35400    297.38008   -6100.7659   -4904.3761   -5201.2261   -992.59416 
   35450    298.88838   -6057.1725   -4854.7146   -4614.7674    802.32524 
   35500    315.32544   -6151.1267   -4882.5409   -5158.4355   -922.52432 
   35550    292.66068   -6135.4366   -4958.0334   -5251.5232    -981.3584 
   35600    304.10746    -6192.763   -4969.3083   -5421.3866   -1511.6399 
   35650    307.66401   -6201.1337   -4963.3706    -5278.993   -1055.3644 
   35700     303.9087   -6184.9234   -4962.2683   -5369.5863   -1361.9723 
   35750    314.79969   -6246.5353   -4980.0647   -5093.2996   -378.62984 
   35800    293.16935   -6193.4659   -5014.0162   -5748.0622   -2454.4711 
   35850     301.0946   -6216.0756    -5004.742   -5561.4652   -1861.5471 
   35900    301.33118   -6189.0877   -4976.8022   -5261.8833   -953.24171 
   35950    300.69138   -6151.0904   -4941.3789    -4914.327    90.455174 
   36000    307.00658   -6118.7789   -4883.6607   -4783.7533    334.06604 
   36050    311.99005   -6109.6787   -4854.5115      -4735.5     397.9457 
   36100     313.4018   -6166.2239   -4905.3771   -4869.3635    120.42075 
   36150    296.42144   -6207.2354   -5014.7024   -5271.9239   -860.08621 
   36200     287.5986   -6242.9087   -5085.8707   -5273.4943   -627.36758 
   36250    298.91654   -6253.3651    -5050.794   -4955.6842    318.02409 
   36300     316.9203   -6220.4969   -4945.4948   -5132.2246   -624.37903 
   36350    315.09024   -6128.2434   -4860.6038   -4824.4239    120.97683 
   36400    313.50892    -6101.881   -4840.6033   -4890.2664   -166.06149 
   36450    303.54923   -6091.6153   -4870.4064   -4846.3159    80.552542 
   36500    303.12307   -6110.6206   -4891.1262   -4991.8489   -336.79232 
   36550    313.88749   -6165.1885   -4902.3878    -5481.459   -1936.2731 
   36600    309.91397   -6138.4225   -4891.6076   -4756.7201    451.03106 
   36650    300.32468   -6104.2505   -4896.0143   -4934.6441    -129.1685 
   36700    299.40639    -6098.062   -4893.5202   -4744.2602    499.08911 
   36750    312.61313    -6090.681   -4833.0072   -4804.6788    94.723161 
   36800    316.01146   -6040.4639   -4769.1182   -4825.4962   -188.51428 
   36850    303.83679      -5990.7   -4768.3342   -4399.6625    1232.7486 
   36900    292.89014   -5982.5346   -4804.2083   -4303.5703    1674.0118 
   36950    311.03634   -6091.0033    -4839.673   -4909.1722   -232.38844 
   37000    302.79322   -6097.4978   -4879.3305   -5101.2771   -742.13544 
   37050    304.73237   -6116.9077   -4890.9389   -5241.2934   -1171.5004 
   37100    299.68314   -6076.9222   -4871.2669   -4613.7954    860.92211 
   37150    300.92326   -5985.3002   -4774.6559   -4401.0554     1249.229 
   37200    306.89935   -5882.2298   -4647.5431   -3682.0548    3228.3579 
   37250    312.65542   -5831.9682   -4574.1242   -3656.6313    3067.8732 
   37300    310.46065   -5851.2578   -4602.2435   -3932.6681    2238.8974 
   37350     301.1763   -5870.6026   -4658.9402   -3943.3357    2392.8075 
   37400    307.84132    -5955.403   -4716.9265   -4367.7092    1167.6978 
   37450    299.11319   -5952.5434   -4749.1811   -4701.4297    159.66907 
   37500    302.87549   -5949.8882   -4731.3899   -4256.4549    1588.0669 
   37550    315.70957   -5959.7111     -4689.58   -4201.9193    1630.6185 
   37600    312.76363   -5978.0666   -4719.7873   -4475.9274    815.40808 
   37650    302.91267   -6020.1246   -4801.4766   -4383.6207    1397.2084 
   37700    301.78004   -6060.6044   -4846.5131   -4868.3992   -73.181885 
   37750    302.52763    -6062.284   -4845.1851   -4721.1122    414.86966 
   37800    302.19742   -6035.1534    -4819.383   -5165.1108   -1156.0294 
   37850    313.05183   -6024.1626   -4764.7238   -4584.7671    601.73142 
   37900    313.54072   -5963.3845   -4701.9788   -3952.2282    2506.9836 
   37950    305.87211   -5888.5455   -4657.9914    -3849.582    2703.1245 
   38000     312.7471   -5895.3518   -4637.1389   -4198.3721    1467.1297 
   38050    301.02674   -5875.6245   -4664.5638   -3858.5455    2695.1289 
   38100    312.06353   -5969.2366   -4713.7739   -4376.8746    1126.5092 
   38150    302.48505   -5971.4834   -4754.5558   -4324.5618     1437.795 
   38200    305.17538   -6050.7393   -4822.9883   -4657.2353    554.23761 
   38250    310.67738   -6140.9826   -4891.0964   -5178.4275   -960.76534 
   38300    299.74542   -6153.6657   -4947.7599    -5113.493   -554.17103 
   38350    303.73434   -6219.0877   -4997.1341   -5379.1748   -1277.4513 
   38400    294.54349   -6224.0606   -5039.0827   -5261.9081   -745.07399 
   38450    297.28752    -6216.552   -5020.5346   -5068.3617   -159.92212 
   38500    304.10294   -6186.8329   -4963.3964     -5393.69   -1438.7972 
   38550    305.34844   -6155.4476   -4927.0003    -5309.966    -1280.544 
   38600    307.62789   -6150.4401   -4912.8223   -5179.2475    -890.8609 
   38650    313.75052   -6177.5886   -4915.3389   -5260.6247   -1154.5516 
   38700    305.88073   -6183.3674   -4952.7787   -5141.3393   -630.50083 
   38750      302.653   -6242.3599   -5024.7567   -5454.6216   -1437.3636 
   38800    294.47903   -6265.7483   -5081.0298   -4976.9779    347.92396 
   38850    295.89983   -6233.5486    -5043.114   -5342.8134   -1002.1219 
   38900    308.75307   -6195.3321   -4953.1877    -5148.554   -653.25742 
   38950       317.34   -6167.6276   -4890.9371   -4997.3888   -355.94871 
   39000    301.14694   -6114.9968   -4903.4526   -4840.3394    211.03508 
   39050    304.47938   -6175.1883   -4950.2373   -4900.2701    167.07819 
   39100    300.80505   -6224.7216   -5014.5528   -5496.8261   -1612.6047 
   39150    304.47915   -6259.3541    -5034.404   -5344.2864   -1036.1714 
   39200    300.30395   -6234.4965   -5026.3437   -5205.7082   -599.75118 
   39250    313.12284   -6245.9267   -4986.2022   -5484.0502   -1664.6823 
   39300    300.01596   -6147.0704   -4940.0763   -5214.6411   -918.07791 
   39350    306.05327   -6115.5378   -4884.2549   -4990.2146   -354.30357 
   39400    313.97206    -6119.027    -4855.886   -4624.6651    773.14643 
   39450    307.72445   -6123.6967   -4885.6904   -4846.3285    131.61675 
   39500    293.26241   -6110.2965   -4930.4725   -4900.3164    100.83466 
   39550    304.25008   -6151.0075   -4926.9791   -5322.0362   -1320.9749 
   39600    309.59939   -6165.9526   -4920.4033   -5277.5143   -1194.0923 
   39650    307.72456   -6189.3249   -4951.3183   -5402.9231   -1510.0567 
   39700    286.46152   -6130.9776   -4978.5143   -5173.8684   -653.21659 
   39750    303.51459   -6159.0446    -4937.975   -5154.2279   -723.09696 
   39800    309.40356   -6123.2676   -4878.5062   -4843.5308    116.94907 
   39850    307.31785   -6056.1593   -4819.7889    -4756.492    211.64928 
   39900    318.12971   -6061.9652   -4782.0975   -4730.5615    172.32402 
   39950    308.55232   -6017.0945   -4775.7576   -4507.7499    896.15263 
   40000    307.63761   -6048.6361   -4810.9792   -4323.8768    1628.7521 
   40050    300.86457   -6114.2175   -4903.8092   -4863.8171    133.72375 
   40100    300.95143   -6169.1182   -4958.3605   -5266.6842   -1030.9594 
   40150    306.06461   -6195.6409   -4964.3124   -5689.3962   -2424.5039 
   40200    314.90298   -6241.7933   -4974.9071   -5460.2959   -1623.0221 
   40250     302.6994   -6239.7896   -5021.9996   -5423.7402   -1343.3228 
   40300     295.0298   -6246.8994   -5059.9651   -5456.9351   -1327.3712 
   40350     305.3868   -6273.1713   -5044.5696   -5035.8279    29.230309 
   40400    306.86582   -6242.7936   -5008.2418   -5168.6067   -536.22138 
   40450    302.58728   -6190.6747   -4973.3359   -5470.0013   -1660.7281 
   40500     301.4144   -6176.3401   -4963.7198   -4938.1544    85.484648 
   40550    303.70636   -6164.9751   -4943.1341   -5194.2028   -839.51267 
   40600    302.57401   -6150.6412   -4933.3557   -4953.7179   -68.086364 
   40650    312.90544   -6208.8232   -4949.9734   -5428.5188   -1600.1394 
   40700    301.93153   -6202.1836   -4987.4829   -5304.5112   -1060.0655 
   40750     294.3488   -6201.1091   -5016.9144    -5382.821   -1223.5025 
   40800    300.83229   -6239.7539   -5029.4755   -5422.0669   -1312.7301 
   40850    300.72377   -6252.0306   -5042.1888   -5300.0216   -862.13018 
   40900    291.59985   -6220.6047   -5047.4693   -5329.8383    -944.1731 
   40950    311.25924    -6254.912    -5002.685   -5491.1277   -1633.2334 
   41000    305.38948   -6178.5097   -4949.8973   -5173.4096    -747.3708 
   41050    310.31314   -6152.9948   -4904.5741   -4886.0365    61.984987 
   41100    310.17811   -6095.5889   -4847.7114   -4828.9266    62.811829 
   41150    318.56842   -6083.6968   -4802.0642    -4495.918    1023.6786 
   41200    311.05813   -6051.3482   -4799.9302   -4447.5297    1178.3413 
   41250    306.86128   -6111.6344   -4877.1008   -4634.4589    811.33547 
   41300    298.33203   -6156.0934   -4955.8738   -5217.1682   -873.70474 
   41350    289.09519   -6130.9003   -4967.8415   -4634.7925    1113.6349 
   41400    323.18443   -6241.0501   -4940.8468   -5308.0514   -1227.8428 
   41450    299.26644   -6179.6911   -4975.7123   -5545.9302   -1906.6701 
   41500    304.13136   -6236.0049    -5012.454   -5322.7489   -1037.5505 
   41550     306.0577   -6255.9624   -5024.6617   -5795.0385   -2575.9525 
   41600    307.95416   -6262.9215   -5023.9911   -5633.7122   -2038.7587 
   41650    294.13423   -6220.6453   -5037.3139   -5259.2656   -742.15236 
   41700    286.13504   -6160.2079    -5009.058    -5234.914   -755.20759 
   41750    301.30513   -6127.9368   -4915.7562   -4683.2599    777.41081 
   41800    308.62377    -6061.844   -4820.2198   -4549.3435    905.74419 
   41850    313.64144   -6015.5896   -4753.7787   -4731.1152    75.781413 
   41900    302.94267   -5915.8669   -4697.0982    -4269.317    1430.3964 
   41950    311.10769   -5922.3024   -4670.6851   -4113.1902    1864.1272 
   42000    306.13339   -5882.0447   -4650.4394   -4046.2383    2020.3015 
   42050     304.6795   -5878.0506   -4652.2945   -3618.4378    3456.9654 
   42100    297.71062   -5846.8644   -4649.1448   -3943.8274    2358.4095 
   42150    313.54252   -5876.6432   -4615.2303   -4075.7947    1803.7415 
   42200    312.51107   -5872.2662   -4615.0029   -4145.8306    1568.7982 
   42250    308.98009   -5911.6584   -4668.6006    -4185.914    1613.9866 
   42300    303.77103    -5918.591   -4696.4897   -4037.8622    2202.2901 
   42350    302.65396   -5914.5443   -4696.9371   -4222.4904    1586.4343 
   42400    314.65426     -5959.08   -4693.1945   -4163.9997    1769.4986 
   42450    297.81235   -5910.7279   -4712.5991   -4121.2275    1977.4025 
   42500     304.9746   -5929.9444   -4703.0012   -4449.2153    848.59815 
   42550    307.68657   -5956.2074   -4718.3536   -4363.1294    1187.7833 
   42600    301.15213   -6011.1908   -4799.6257   -4931.2121   -439.99276 
   42650    295.20376   -6037.4715   -4849.8372   -4546.0481    1015.7969 
   42700    306.67899   -6102.6224   -4868.8221   -4811.2981    192.34644 
   42750    305.58619    -6104.221   -4874.8172   -5232.0857   -1194.6191 
   42800    297.21186   -6047.0258   -4851.3128   -4446.4492    1353.7655 
   42850    304.25771   -6020.9149   -4796.8557     -4549.83    825.99389 
   42900    311.98318   -5986.3912   -4731.2517   -4222.2586    1701.9489 
   42950    311.47477     -5956.63   -4703.5358   -4428.8148    918.60015 
   43000    313.67579   -5983.4117   -4721.4626   -4424.6526     992.4606 
   43050     308.5373   -5969.0412   -4727.7648   -4085.2227    2148.5044 
   43100    301.46889   -5968.2711   -4755.4316   -4247.0169     1700.015 
   43150    310.54569   -6030.5905   -4781.2341   -4754.4957     89.40673 
   43200    300.49714    -6043.424    -4834.494   -4654.6536    601.34236 
   43250    292.25554   -6011.4472   -4835.6739   -4431.1881    1352.5022 
   43300    295.44156   -5964.6701   -4776.0792   -4217.0198    1869.3586 
   43350    317.41508   -5991.2785   -4714.2859   -4305.9122    1365.5022 
   43400     301.3258   -5869.1126   -4656.8488   -3949.6131    2364.8241 
   43450    299.99135   -5792.1002    -4585.205   -3648.6854    3131.4937 
   43500    317.42192   -5823.6406   -4546.6205    -3910.993    2125.3836 
   43550    323.62861   -5872.0042   -4570.0139   -3738.1561    2781.5302 
   43600    298.47854    -5870.093    -4669.284   -4074.6179    1988.4188 
   43650    291.21615   -5909.2512   -4737.6595   -4335.4458    1344.9048 
   43700    307.64728   -5962.5484   -4724.8527   -3956.5364    2569.0625 
   43750    307.94985   -5954.8597   -4715.9467   -4585.6974    435.52186 
   43800    290.89906   -5883.8511   -4713.5351   -3956.9449    2529.8538 
   43850    304.83402   -5895.1721   -4668.7944   -4150.8558    1731.8603 
   43900    307.46043   -5835.1272   -4598.1832   -4023.4383     1921.807 
   43950    315.48539   -5824.8099   -4555.5806   -3967.6005    1966.0627 
   44000    311.87294   -5808.4958   -4553.7998   -4046.5225    1696.2117 
   44050    303.76966    -5821.048   -4598.9523   -3831.5633    2565.9621 
   44100    302.48859   -5880.0008   -4663.0589   -4286.6092    1258.7565 
   44150    303.12363   -5918.8428   -4699.3462   -4419.6308    935.30004 
   44200     307.5137   -5955.1608   -4718.0024   -4524.2642    647.81352 
   44250    297.10921   -5921.1713   -4725.8713    -4154.094    1911.8841 
   44300    299.94353    -5950.939   -4744.2362    -4566.148    595.48347 
   44350    305.70591   -6000.9181   -4771.0327   -4410.4691     1205.637 
   44400    305.90185   -6044.6618   -4813.9881   -4664.6105    499.48245 
   44450    298.44044   -6072.0649   -4871.4092   -4954.3776   -277.42624 
   44500    300.07867   -6119.6964   -4912.4499   -5145.4736    -779.1746 
   44550     296.5071   -6119.2698   -4926.3921   -4948.2929   -73.230885 
   44600    303.26122   -6112.9624   -4892.9122   -4895.7138   -9.3678304 
   44650    308.52931   -6086.9771   -4845.7328   -4791.1633    182.46717 
   44700    302.08532   -6025.4709   -4810.1515   -4418.9936    1307.9367 
   44750    309.14726   -6048.9528   -4805.2225    -4455.398    1169.7279 
   44800    302.78027   -6034.5398   -4816.4246   -4569.3611    826.12022 
   44850    308.37953    -6088.465   -4847.8233   -4858.0798   -34.295091 
   44900    291.79596   -6033.5546   -4859.6303   -4487.5521    1244.1391 
   44950    313.26456   -6096.9458   -4836.6512   -4685.1306    506.64779 
   45000    311.12558   -6082.5082   -4830.8189   -4904.8583   -247.56993 
   45050    296.14993   -6067.2702   -4875.8294   -4708.6829    558.89742 
   45100    300.81741   -6109.5625    -4899.344   -5151.2163   -842.19974 
   45150    290.50688   -6073.1411   -4904.4028   -5076.9182   -576.84928 
   45200    319.10849   -6132.6851   -4848.8798   -5248.0247   -1334.6434 
   45250    295.61462   -5985.6645   -4796.3774     -4532.92    880.93742 
   45300    309.85799   -5971.5043   -4724.9146   -4343.0433    1276.8846 
   45350     309.1785   -5934.2563   -4690.4003   -3918.1693    2582.1527 
   45400    305.04899   -5934.3657   -4707.1231   -4382.1727    1086.5548 
   45450    297.32054   -5888.7154   -4692.5652   -4242.1199    1506.1795 
   45500    320.44267   -5958.3169    -4669.144   -4253.8067    1388.7869 
   45550     304.4804   -5903.1137   -4678.1586   -4283.1726     1320.737 
   45600    295.68303   -5893.9742   -4704.4118   -3948.7588    2526.7196 
   45650    316.15473   -5986.5811    -4714.659   -4593.6297    404.69279 
   45700    305.03656   -5971.2358   -4744.0433   -4418.6874    1087.9107 
   45750    299.18915   -6022.7741   -4819.1062   -4606.1746    711.99155 
   45800    305.17357   -6064.7068    -4836.963   -4411.3264    1423.2253 
   45850    306.48681   -6042.0943   -4809.0672   -4546.9338    876.51016 
   45900    316.57416   -6053.7856   -4780.1761   -4526.7414    847.42387 
   45950    311.92937   -6026.0999   -4771.1769   -4732.7144    128.60905 
   46000    318.27103   -6039.7253   -4759.2891   -4607.2429    508.40561 
   46050    299.37945   -5952.6095    -4748.176   -4594.2248    514.77566 
   46100    317.77665   -6016.6009   -4738.1537   -4436.7224    1007.9128 
   46150    302.06222   -6005.9574   -4790.7309   -4364.6596    1424.6787 
   46200    296.28465   -6043.5436   -4851.5608   -5139.9649     -964.353 
   46250    306.29978   -6089.3938   -4857.1192   -5169.8377   -1045.6548 
   46300    300.13765   -6095.4009   -4887.9171   -4789.1579    330.22676 
   46350    303.14843    -6171.111   -4951.5146   -5271.7206   -1070.6911 
   46400    304.66443   -6215.9428   -4990.2473   -5585.9115   -1991.7561 
   46450    295.14864   -6188.9923   -5001.5798   -5426.7339   -1421.6119 
   46500     301.8967   -6202.9904   -4988.4298    -5165.541   -592.21678 
   46550    304.32678   -6174.2898   -4949.9528   -5240.3606   -971.05308 
   46600    298.73711    -6108.479   -4906.6298   -5210.9113   -1017.4433 
   46650    315.87588   -6142.7215   -4871.9212   -4734.1392    460.70966 
   46700    312.91749   -6168.3911   -4909.4928   -5467.5982   -1866.1686 
   46750    308.50865   -6214.7642    -4973.603   -5366.6061   -1314.1067 
   46800    305.26841   -6263.9417   -5035.8164   -6131.7121   -3664.4086 
   46850     294.7153   -6249.3563   -5063.6872   -5846.0656    -2616.083 
   46900     316.5614   -6272.6133   -4999.0552   -5984.2662   -3294.3059 
   46950    305.80367   -6170.1283   -4939.8495   -5268.3445   -1098.4071 
   47000    301.67299   -6113.9477   -4900.2872   -4999.8525   -332.92237 
   47050      318.109   -6181.2581   -4901.4738   -5345.8511   -1485.8896 
   47100    292.81176    -6113.557   -4935.5461   -4754.1222    606.63711 
   47150    311.25258   -6193.4511   -4941.2509   -5422.4097   -1608.8781 
   47200    306.76567   -6212.0987   -4977.9497   -5446.1355   -1565.4993 
   47250    310.22517   -6277.0692   -5029.0023   -5787.7742   -2537.1484 
   47300     297.2478   -6281.7573   -5085.8997   -5652.4051    -1894.256 
   47350    296.47413   -6280.0132   -5087.2681    -5432.598    -1154.699 
   47400    310.38241   -6277.4183   -5028.7188   -5782.9144   -2521.8464 
   47450    323.62729   -6277.4232   -4975.4383   -5700.6023   -2424.7719 
   47500    311.50414   -6263.0662   -5009.8539   -5364.6202   -1186.2523 
   47550    295.46847   -6244.3386   -5055.6394   -5591.0823   -1790.3908 
   47600    294.68554   -6237.4215   -5051.8721   -5247.9774    -655.7283 
   47650    299.77681   -6212.2222   -5006.1901   -5029.1306    -76.70743 
   47700    311.89774   -6212.9144   -4958.1186   -4910.8915    157.91571 
   47750    306.26018   -6173.9341   -4941.8188   -5204.8143   -879.39296 
   47800    321.07137   -6212.2201   -4920.5179    -5319.828   -1335.1961 
   47850     302.4684   -6129.3566    -4912.496    -4895.236    57.713118 
   47900    316.82652   -6180.8194   -4906.1947   -5109.8279   -680.89989 
   47950    311.01709   -6220.0029     -4968.75   -5067.6389   -330.66027 
   48000    287.81964   -6189.0999   -5031.1728   -5388.9976   -1196.4792 
   48050    309.41338   -6269.2455   -5024.4445   -5614.8367   -1974.1277 
   48100    298.36445   -6250.7489   -5050.3989   -5468.8264   -1399.1198 
   48150     302.8777   -6279.4433   -5060.9361   -6014.8372   -3189.6133 
   48200    300.95979   -6279.3715   -5068.5801   -5778.4776   -2373.7244 
   48250    300.11483   -6246.1113   -5038.7193   -5224.8808   -622.47859 
   48300    302.94138   -6192.5211   -4973.7577   -5361.0713   -1295.0824 
   48350    291.45079   -6089.9961   -4917.4604   -4806.3149    371.64359 
   48400    309.99758   -6107.7271   -4860.5758   -4844.5714    53.514831 
   48450    304.67148   -6044.2918    -4818.568   -4545.9344    911.62037 
   48500    302.80038   -5988.8151   -4770.6189   -4539.0295     774.3787 
   48550    301.45598   -5898.2981   -4685.5105   -4020.0199    2225.2386 
   48600    304.32417   -5815.9147   -4591.5882    -3884.241    2365.1969 
   48650    314.41557   -5809.7881   -4544.8628   -3939.6292     2023.754 
   48700    310.36865   -5812.9489   -4564.3048   -3950.2986    2053.0873 
   48750    302.32464   -5840.2844   -4624.0021   -4142.9375    1608.5632 
   48800    297.25839   -5869.8352   -4673.9349   -3906.7553    2565.2619 
   48850    304.35927   -5918.8792   -4694.4115   -4078.0174    2061.0718 
   48900    316.39361   -5991.9474   -4719.0643   -4343.7412    1254.9891 
   48950    298.82421   -5973.1471   -4770.9474   -4650.0415       404.28 
   49000    297.25203   -5964.3537    -4768.479   -4529.6945    798.43721 
   49050    318.21425   -6006.5997   -4726.3919   -4408.9013    1061.6114 
   49100    299.58097   -5914.1624   -4708.9182   -3896.4718    2716.6232 
   49150    315.13765   -6001.7312   -4733.9009   -4358.5607    1255.0464 
   49200    295.05912   -5978.1704   -4791.1181   -4635.2808    521.08228 
   49250    296.94635   -6034.6048     -4839.96   -4758.9154    270.99315 
   49300    303.37199   -6064.3649   -4843.8691   -5137.7228   -982.57527 
   49350    316.61182   -6119.7594   -4845.9984   -4829.3417     55.69616 
   49400    301.83729   -6094.5349   -4880.2133   -4584.0754    990.21307 
   49450    295.28165   -6098.0647   -4910.1172   -4775.0222    451.72468 
   49500    299.11881   -6147.4758   -4944.0909   -4839.0335    351.28649 
   49550    304.12234   -6195.7659   -4972.2513   -5248.1771   -922.62875 
   49600     308.7896   -6246.5531   -5004.2617   -5674.6778   -2241.7082 
   49650    295.87919   -6233.4548   -5043.1032    -5772.328   -2438.3503 
   49700    298.09547   -6210.9393   -5011.6714   -5119.1622   -359.42289 
   49750    301.45307    -6148.835   -4936.0592   -4891.7992    147.99459 
   49800    302.69213   -6125.8526    -4908.092    -4702.623    687.03814 
   49850     306.3027   -6115.5482   -4883.2618   -4827.4543    186.60692 
   49900    303.85482   -6091.0249   -4868.5866   -4432.1922    1459.1967 
   49950    302.00554   -6089.7376   -4874.7391   -4413.7415    1541.4638 
  STMD DIG: istep=50000  TSC1=50000 Tlow=1.010477
   50000    305.73963   -6115.5774   -4885.5563   -5098.0607   -710.56292 
   50050    291.72027   -6070.0762   -4896.4564   -4547.8436    1165.6765 
   50100    318.67097   -6142.9967   -4860.9515   -4403.8076    1528.5782 
   50150    301.65846    -6027.442   -4813.8398   -4511.4683    1011.0569 
   50200    307.48134   -6008.9681   -4771.9399   -4521.3711     837.8412 
   50250     306.2239   -5947.8506   -4715.8813    -4301.556    1385.4027 
   50300    314.86561   -5893.8397   -4627.1038   -4183.5884    1483.0076 
   50350    316.23458   -5807.3819   -4535.1385   -3840.7328    2321.9239 
   50400    316.70375    -5788.052   -4513.9212    -3992.709    1742.8065 
   50450    303.33518   -5817.5347   -4597.1869   -3714.6916    2950.8496 
   50500    286.58162   -5861.6459   -4708.6994    -3990.376    2401.8989 
   50550    297.98188   -5971.6094   -4772.7985   -4578.9397    648.21682 
   50600    301.20781   -5989.6887   -4777.8995   -4448.8258    1100.3424 
   50650    300.88843   -5982.7501   -4772.2458   -4387.8024    1285.4852 
   50700    305.65612   -6002.3247   -4772.6396   -4408.8535    1216.4123 
   50750    302.89676   -6022.7012   -4804.1172   -4546.8473    860.24808 
[...]
  987600    307.72515   -6429.9072   -5191.8982   -6229.5024   -3469.4958 
  987650    313.77424   -6453.2543   -5190.9092   -6493.4726   -4355.4549 
  987700    309.80342   -6429.5018   -5183.1316   -6038.4581   -2860.0034 
  987750    307.71828   -6425.0786   -5187.0972   -6165.1613   -3270.4083 
  987800    312.69226   -6456.9662   -5198.9739   -6145.8705   -3166.1917 
  987850    295.95671   -6414.4202   -5223.7568   -5990.4657    -2563.688 
  987900     303.8085   -6444.8861   -5222.6341   -5984.7917   -2548.4695 
  987950    303.26665   -6442.6573   -5222.5853   -6040.0203   -2733.3038 
  988000    302.93295   -6439.4317   -5220.7022   -6151.4243   -3112.1082 
  988050     302.5018   -6398.8426   -5181.8477   -6090.6873   -3038.9386 
  988100    312.44373   -6380.0193   -5123.0269   -5798.8584   -2259.8162 
  988150    308.59717   -6362.2245   -5120.7072   -5683.7017   -1882.5166 
  988200    303.07605   -6368.7365   -5149.4312   -6064.2546   -3058.9467 
  988250    309.84273   -6406.7794   -5160.2511   -5750.4728   -1973.5577 
  988300    302.56015   -6393.3126   -5176.0829   -6015.2105   -2805.8386 
  988350    285.61103   -6344.5505   -5195.5088   -5816.2615   -2075.6459 
  988400    311.91588   -6383.3264   -5128.4577    -6116.377   -3303.3618 
  988450     311.1834   -6309.4598   -5057.5378   -5682.5985   -2090.0508 
  988500    320.81004   -6316.4951   -5025.8442   -5583.7151   -1865.3845 
  988550     307.4807   -6301.3581   -5064.3325   -5787.5962   -2418.4177 
  988600    304.49369   -6340.7657   -5115.7571   -5763.3238   -2165.3054 
  988650    306.82766   -6392.6212   -5158.2229   -6208.7079   -3512.5663 
  988700    290.05218   -6351.7206   -5184.8117   -5957.8045      -2584.7 
  988750    311.08086   -6370.2632   -5118.7538   -5963.1726   -2823.5307 
  988800     306.5009   -6286.1258    -5053.042   -5610.8018    -1865.013 
  988850    315.61235   -6270.1805   -5000.4404   -5636.6996    -2127.496 
  988900    307.94043   -6194.5983   -4955.7232   -5022.3725   -222.85921 
  988950    316.54726   -6205.1711   -4931.6698   -5033.5731   -340.73976 
  989000    307.33809   -6205.0541   -4968.6023   -5162.2706   -647.57987 
  989050    298.13367   -6197.5312   -4998.1096    -5553.166   -1855.9736 
  989100     310.9235   -6234.7318   -4983.8554   -5179.6573   -654.71389 
  989150    297.55077   -6218.1248   -5021.0483    -5533.653   -1714.0254 
  989200    287.97937   -6183.0154   -5024.4456   -5459.0522   -1453.2187 
  989250    299.50846   -6163.7127   -4958.7602   -4863.9957    316.86945 
  989300    313.14504   -6136.6933   -4876.8796   -5043.6391   -557.60339 
  989350    320.62774   -6142.6035   -4852.6861   -4943.7021   -304.33562 
  989400    297.80745   -6096.9767   -4898.8676   -4995.1207   -321.84702 
  989450    296.00071   -6077.7482   -4886.9078   -4785.7211     338.3438 
  989500    307.53857   -6064.8689   -4827.6105   -4304.7086    1748.4566 
  989550    308.70085   -6021.0556   -4779.1213   -4650.9554    428.55548 
  989600    316.07784   -6012.3615   -4740.7488   -4454.2441    958.00179 
  989650     315.0434   -6024.7367   -4757.2856   -4550.9163     690.0486 
  989700    307.04703   -6070.1451   -4834.8641    -4411.517    1415.5699 
  989750    290.87237   -6109.7072   -4939.4985   -5163.6707   -749.57708 
  989800    295.36365   -6171.7353   -4983.4578   -5374.5243   -1307.6311 
  989850    306.16846   -6192.7883    -4961.042   -5308.9584   -1163.3477 
  989900      310.559   -6156.1388   -4906.7289   -4912.7118   -20.005282 
  989950    302.30978   -6061.3982   -4845.1758   -4401.0986    1484.8861 
  990000    308.18506   -6041.2548   -4801.3955   -4505.4449    989.58691 
  990050    311.27565   -6036.6683   -4784.3753    -4884.998   -336.45784 
  990100     301.4744   -5992.2685   -4779.4069   -4315.1889     1552.232 
  990150    305.78914   -5999.6132   -4769.3929   -4282.7366    1627.2603 
  990200    295.02628   -5962.0423    -4775.122   -4241.9555    1782.7791 
  990250    296.06486   -5963.9817   -4772.8832   -4128.3602     2155.128 
  990300     305.5969   -6002.3113   -4772.8644   -4508.8707    882.73087 
  990350    312.93517   -6015.3329   -4756.3635   -4467.6172    965.49723 
  990400    306.85274   -5971.5357   -4737.0365   -4525.3076    707.96983 
  990450     307.9275   -5944.9431     -4706.12    -4620.923    284.87773 
  990500    300.93416   -5864.5359   -4653.8477   -4129.9827    1751.6771 
  990550    316.47877   -5859.8889   -4586.6632   -4156.7288    1437.5959 
  990600    319.33541   -5830.1814   -4545.4631   -3971.5326    1919.0839 
  990650    301.80216   -5772.6535   -4558.4733   -3756.6718    2681.0292 
  990700    315.02674    -5881.507    -4614.123   -3983.1395    2109.8554 
  990750     305.2153   -5918.0692   -4690.1575   -3901.5678    2636.8523 
  990800    296.22014    -5967.383   -4775.6598   -4179.9658    1991.8556 
  990850    295.36418   -6008.0371   -4819.7575   -4793.1704    88.900733 
  990900    305.56451   -6064.3101   -4834.9935   -4563.2154    908.75983 
  990950    315.10073   -6109.8986   -4842.2169   -4802.8746    131.55103 
  991000    296.82182    -6042.943   -4848.7992   -4799.4761    164.92416 
  991050    302.75192   -6049.7524   -4831.7512   -4586.4458    820.24153 
  991100    304.10898   -6034.1359    -4810.675   -4397.6412    1381.0846 
  991150    305.79193   -6016.4349   -4786.2034   -4381.9088    1351.8629 
  991200    306.04846   -5988.6492   -4757.3856     -4472.09    953.95922 
  991250    302.22968   -5948.5061   -4732.6059    -4323.654    1367.4355 
  991300    299.81442   -5893.1195   -4686.9361    -4076.261    2041.9488 
  991350    297.06616   -5834.6025   -4639.4757     -3952.51    2297.0462 
  991400    324.22596   -5913.1943   -4608.8008   -3891.9523    2396.9669 
  991450    308.85211   -5903.7117   -4661.1688   -3928.5347    2449.7503 
  991500    294.29119   -5961.9034   -4777.9406   -4293.2927    1620.5444 
  991550    300.87656   -6035.1693   -4824.7128   -4835.3363   -35.522455 
  991600    304.33751   -6047.4922    -4823.112   -4503.9203    1067.2994 
  991650    306.87757   -6050.0818   -4815.4827   -4770.7788    149.47898 
  991700    296.00573   -5961.0391   -4770.1784   -4237.8997    1779.8104 
  991750    302.76579   -5892.8264   -4674.7693   -4284.6788    1304.3678 
  991800    315.52281   -5884.2946   -4614.9148   -3949.2906    2225.6855 
  991850    310.08227   -5892.8849   -4645.3929   -3987.7464    2199.0101 
  991900    312.49309   -5946.6089   -4689.4179   -4339.1522    1171.2031 
  991950     307.8371   -5996.3805   -4757.9211   -4437.5875    1071.1177 
  992000    300.08205   -6025.0612   -4817.8011   -4567.9171    835.55116 
  992050    313.85499   -6123.6181   -4860.9481   -5069.0421   -695.81571 
  992100    310.93634   -6173.2006   -4922.2726   -5080.1676   -527.96248 
  992150    290.92682   -6129.8126   -4959.3849   -5338.0771   -1266.2545 
  992200    318.15469   -6213.8156   -4933.8475   -5514.4165   -1941.2815 
  992250    312.28961    -6181.545   -4925.1727   -5283.5859   -1198.4463 
  992300    310.66617   -6205.3781   -4955.5371   -5088.3021   -443.93401 
  992350    300.32296   -6228.3411   -5020.1118   -5387.2082   -1227.4809 
  992400    302.69995   -6288.1881    -5070.396   -5655.5389   -1956.5754 
  992450    302.40588   -6309.6852   -5093.0761   -5681.2174   -1966.6014 
  992500    298.84852   -6287.8326   -5085.5351   -5834.4967   -2504.3455 
  992550    304.08502   -6259.4035   -5036.0391   -5448.8356   -1380.2909 
  992600    303.59446   -6185.7374   -4964.3465   -5321.9666   -1195.7946 
  992650       316.04      -6202.6   -4931.1395   -5326.5005   -1321.9908 
  992700    306.10655    -6199.796   -4968.2988   -5513.4152   -1822.7366 
  992750    299.70145    -6235.543   -5029.8141   -5570.3371   -1807.3773 
  992800    307.89613   -6280.2554   -5041.5585   -5694.9385   -2184.7437 
  992850    310.93174   -6287.9625    -5037.053   -6074.0986   -3467.6281 
  992900    298.24572   -6209.7323   -5009.8599   -5202.6699   -644.70942 
  992950     313.6089   -6183.3853   -4921.7054   -5186.0344   -883.85201 
  993000    311.05522    -6117.345   -4865.9388   -4769.8029     321.4549 
  993050    311.12009   -6138.0811   -4886.4139   -4963.1518    -256.5929 
  993100    306.50168   -6162.2556   -4929.1687   -4822.1619    357.80476 
  993150    301.88505   -6187.9254   -4973.4116   -5187.2777   -715.11609 
  993200    305.22732   -6227.7581   -4999.7981   -5517.5534   -1731.2478 
  993250    287.22897   -6152.9015   -4997.3506    -5409.862   -1379.3377 
  993300    305.33925   -6158.2791   -4929.8688   -5143.7862    -715.2878 
  993350    298.21138   -6076.3759   -4876.6417   -4573.3577     1014.108 
  993400    294.77757   -6000.8311   -4814.9114   -4299.4235    1723.6662 
  993450    309.20192   -5990.7955   -4746.8452   -4612.3042    449.87231 
  993500     301.8584   -5942.1087   -4727.7021   -4165.6467    1879.3765 
  993550    306.01028   -5983.3362   -4752.2262   -4187.9406    1886.8338 
  993600     308.9953   -6065.9775   -4822.8585   -5000.2187   -593.04936 
  993650    303.10699    -6105.472   -4886.0422   -4881.4292    15.424815 
  993700    300.78548   -6097.7208   -4887.6308   -4948.7821   -204.47537 
  993750    300.86151   -6046.4297   -4836.0338   -4825.8293    34.121393 
  993800    314.87547   -6035.8874   -4769.1119   -4424.5588    1152.1018 
  993850    296.09662   -5919.3002   -4728.0739   -4161.1018    1895.8168 
  993900    304.93495   -5919.4309   -4692.6471   -3787.8987    3025.2586 
  993950    313.23813   -5967.0336   -4706.8453   -4061.4687    2157.9823 
  994000    293.96873   -5950.3962   -4767.7306   -4102.2146    2225.3236 
  994050     305.7865   -6042.5434   -4812.3338   -4494.6021    1062.4172 
  994100    308.25053   -6078.0833   -4837.9607   -4923.5809   -286.29337 
  994150    294.40331   -6064.5365   -4880.1226   -4715.0401    551.99572 
  994200     297.0192   -6094.9798   -4900.0419   -5070.8379   -571.10035 
  994250    304.47924   -6090.6751   -4865.7247   -4719.7553    488.08618 
  994300     311.9143   -6099.7543   -4844.8918   -4753.9987    303.92465 
  994350    306.03464   -6064.1879     -4832.98   -4573.9322    866.19278 
  994400    297.15221   -6015.0292   -4819.5562   -4331.9049    1630.5872 
  994450    305.08934   -5997.5057   -4770.1007    -4339.355     1440.309 
  994500    316.49724   -5991.1838   -4717.8838   -4468.7572    833.01882 
  994550    304.83719   -5901.6008   -4675.2103    -3906.581    2570.1093 
  994600    306.15474   -5859.9142    -4628.223   -3872.0135    2528.5807 
  994650    301.87797   -5828.4137   -4613.9284   -3961.0504     2183.065 
  994700    310.66008   -5855.3585   -4605.5419   -3850.2447      2525.53 
  994750    297.16434   -5800.6022   -4605.0803   -3781.9003    2752.5137 
  994800     306.6094   -5845.3983    -4611.878   -3668.6517    3153.9192 
  994850    311.98429   -5919.6826   -4664.5386   -4269.2765    1321.6602 
  994900    298.95834   -5953.2308   -4750.4915    -4328.598    1410.7092 
  994950     289.4173   -5946.7491   -4782.3944   -4193.3023    1969.7806 
  995000    304.68427   -5956.2679   -4730.4927    -4135.328    1990.0858 
  995050    295.18483    -5836.091   -4648.5329   -4046.5516    2012.8792 
  995100    311.47054   -5805.8743   -4552.7972   -3861.8928    2310.2163 
  995150    312.32636   -5769.5231    -4513.003   -3694.6146    2736.4916 
  995200    312.38992   -5782.0286   -4525.2527   -3964.9098    1873.6505 
  995250    301.23393   -5764.5177   -4552.6235   -3859.2451    2318.4885 
  995300    307.71569   -5833.7114   -4595.7404   -3906.3205    2305.2524 
  995350    296.86541    -5853.606   -4659.2868   -4597.7752    205.67964 
  995400    306.00328    -5884.208   -4653.1262   -4036.0785    2063.2575 
  995450    308.89079   -5837.8749   -4595.1764   -3746.6243    2837.3517 
  995500    306.46843   -5792.9525   -4559.9994   -3767.6212    2649.5198 
  995550    308.91815   -5835.3516    -4592.543   -3767.3312    2759.3074 
  995600    298.89244   -5839.2906   -4636.8165    -4178.125    1533.7526 
  995650    300.52825   -5869.3516   -4660.2964   -4520.3537    467.93426 
  995700    304.66267   -5896.1243   -4670.4359   -4246.0674     1418.985 
  995750    307.30262   -5896.6786   -4660.3695   -4368.1672    977.05338 
  995800    320.06639   -5921.4617   -4633.8026   -4214.8573    1400.8512 
  995850     309.6514    -5897.484   -4651.7255   -3759.6927    2982.7406 
  995900    301.86639   -5933.5114   -4719.0727   -4066.1286    2183.2863 
  995950    300.60957   -5959.1571   -4749.7747   -4300.0467    1503.7812 
  996000    300.19567   -5939.2509   -4731.5338   -4479.0443    844.26329 
  996050    297.16043    -5887.356   -4691.8499    -3627.555    3558.7431 
  996100     309.3682    -5879.781   -4635.1618   -3834.9673    2675.6558 
  996150    317.31687   -5886.2205    -4609.623   -4177.0972    1446.2611 
  996200    306.68562   -5878.0443   -4644.2174   -4128.1084    1725.7429 
  996250    298.76854   -5916.5392   -4714.5635   -4223.1126    1643.2923 
  996300    297.54577   -5964.1234    -4767.067   -4144.0072    2083.3604 
  996350     305.5792   -6012.8832   -4783.5076   -4655.7169     427.3009 
  996400    309.31414   -6025.3387    -4780.937   -4774.5798    21.256973 
  996450     296.9534   -6007.3755   -4812.7022    -4475.096    1128.8732 
  996500    295.80193   -6018.2841   -4828.2433    -4835.701    -24.93657 
  996550    304.49746   -6010.0943   -4785.0706   -4383.6482    1342.2589 
  996600    317.04933   -6007.7153   -4732.1942   -4332.6758    1335.8923 
  996650    310.29733   -5980.4977   -4732.1405    -4115.757    2061.0364 
  996700    294.80355   -5937.5039   -4751.4798   -4108.6726    2149.3909 
  996750    305.39874   -5993.3745   -4764.7248   -4322.0907    1480.0608 
  996800    303.00038   -6026.4391   -4807.4383   -4524.2506    946.91074 
  996850    298.09351   -6064.4644   -4865.2044   -4692.1028    578.80963 
  996900    305.85789   -6123.7498   -4893.2529   -5307.5097   -1385.1738 
  996950    304.89002   -6134.9167   -4908.3136   -5380.9022   -1580.2213 
  997000    309.88253   -6145.9959   -4899.3076   -5071.8815   -577.04515 
  997050    310.94755   -6148.9057   -4897.9326   -5229.8503   -1109.8519 
  997100    300.79995   -6120.0428   -4909.8946   -4857.5386    175.06554 
  997150    309.97344   -6178.8623   -4931.8081   -5226.2169   -984.43112 
  997200    303.18112    -6199.743    -4980.015   -5228.7942   -831.85709 
  997250    308.38944   -6296.9545   -5056.2729   -5735.4731   -2271.0803 
  997300    290.67078   -6325.4232   -5156.0256   -6007.2682   -2846.3481 
  997350    301.91638   -6386.9078    -5172.268   -6250.1348   -3604.1243 
  997400    310.28303   -6367.2563   -5118.9567   -6077.0708   -3203.7003 
  997450    307.65161   -6297.9924   -5060.2792   -5564.6072   -1686.3501 
  997500    308.62506   -6289.6228   -5047.9933   -5834.3637   -2629.4313 
  997550    304.08575   -6277.8279   -5054.4605   -5448.6693   -1318.1381 
  997600    305.90288   -6289.8952   -5059.2173   -5771.1234   -2380.4409 
  997650    309.51679   -6270.3443   -5025.1273   -5602.0361   -1929.0427 
  997700    310.55671   -6245.7992   -4996.3985   -5493.5664   -1662.4085 
  997750    293.88611   -6166.9696   -4984.6364   -4876.8586    360.38302 
  997800    302.50513   -6153.7689   -4936.7606    -5160.965   -749.68501 
  997850    301.53525   -6091.0853   -4877.9788   -5052.8351   -584.67689 
  997900    310.02627   -6115.6463   -4868.3797   -4574.8829    981.38185 
  997950     306.4044    -6141.618   -4908.9225   -5147.2842   -797.02345 
  998000    317.28992   -6216.7558   -4940.2668   -5321.3971   -1274.4071 
  998050    306.83136   -6221.8188   -4987.4055   -5473.0336   -1623.8221 
  998100    297.81594   -6202.5396   -5004.3962   -5334.6942   -1104.4359 
  998150    317.73735   -6239.2148   -4960.9256   -5503.6177   -1814.6303 
  998200    306.73935    -6234.745    -5000.702   -5680.9523   -2274.5915 
  998250     301.3725   -6274.4527    -5062.001   -5622.2334   -1873.2808 
  998300    287.36845   -6271.1448   -5115.0329   -5558.6324   -1483.2889 
  998350    296.42496   -6301.2035   -5108.6563   -5660.2013   -1844.2324 
  998400    306.80957   -6310.8339   -5076.5084   -5790.5165   -2387.4694 
  998450    313.41322   -6298.2663   -5037.3736    -5441.552   -1351.4742 
  998500    308.65181   -6274.3511   -5032.6141   -5622.0915    -1971.069 
  998550    310.92454   -6308.6961   -5057.8156   -5586.5704   -1768.0272 
  998600    300.95202    -6329.478    -5118.718   -5721.7511   -2016.3961 
  998650    303.57302    -6413.311   -5192.0064   -5948.3389    -2528.992 
  998700    288.52871   -6416.2433   -5255.4634   -6267.2646   -3383.2167 
  998750    296.41623   -6433.7858   -5241.2737   -6236.1773   -3326.7155 
  998800    305.65612   -6396.4529   -5166.7678    -6291.735   -3761.6167 
  998850    310.50971   -6342.3595   -5093.1479    -5850.942    -2533.879 
  998900    309.00595   -6300.2985   -5057.1367   -5585.3048   -1766.0655 
  998950    304.32935   -6297.2989   -5072.9515   -5604.0892    -1775.995 
  999000    310.95843   -6342.1553   -5091.1384   -5907.6408   -2730.1854 
  999050    302.89597   -6325.2255   -5106.6447     -5883.37   -2597.1802 
  999100    306.51551   -6354.2397   -5121.0972   -5852.7749   -2446.5522 
  999150    303.38668   -6368.9928   -5148.4379   -6165.0584   -3399.3315 
  999200    299.31548   -6378.2289   -5174.0528   -6105.4571   -3114.3894 
  999250    301.99585   -6410.1878   -5195.2284   -6312.6321   -3736.3263 
  999300    295.46562   -6380.6603   -5191.9725    -5948.045   -2528.1223 
  999350    303.85153   -6390.9415   -5168.5164   -5919.5512   -2511.2776 
  999400    296.50628   -6331.2866   -5138.4122   -5658.6974   -1739.7073 
  999450    314.68743   -6352.3487   -5086.3297   -5731.2662   -2156.5108 
  999500    289.11156   -6224.6579   -5061.5332   -5366.7663   -1020.6252 
  999550    319.69662   -6323.5116   -5037.3401     -5846.15   -2704.4634 
  999600    314.14855   -6343.8711   -5080.0201    -5982.232   -3016.7773 
  999650    304.38496   -6384.7668   -5160.1957   -5772.7078   -2048.0915 
  999700    306.98328   -6450.0566   -5215.0322   -6138.3946   -3087.4991 
  999750    305.75184    -6478.696   -5248.6258   -6524.2245   -4265.2916 
  999800    295.84501   -6436.8405   -5246.6265   -5893.2629    -2162.195 
  999850    306.39248   -6410.1817   -5177.5341   -5927.5314   -2507.8084 
  999900    309.29383   -6368.1399   -5123.8199   -5945.3115    -2746.868 
  999950    305.57194   -6347.1625    -5117.816   -5841.5179   -2419.8832 
 1000000    303.29008   -6308.4052   -5088.2389   -5886.7385   -2669.9884 
Loop time of 26356.9 on 1 procs for 1000000 steps with 2004 atoms

Performance: 6.556 ns/day, 3.661 hours/ns, 37.941 timesteps/s
99.9% CPU use with 1 MPI tasks x 1 OpenMP threads

MPI task timing breakdown:
Section |  min time  |  avg time  |  max time  |%varavg| %total
---------------------------------------------------------------
Pair    | 22279      | 22279      | 22279      |   0.0 | 84.53
Bond    | 56.908     | 56.908     | 56.908     |   0.0 |  0.22
Kspace  | 1552.2     | 1552.2     | 1552.2     |   0.0 |  5.89
Neigh   | 2094.9     | 2094.9     | 2094.9     |   0.0 |  7.95
Comm    | 90.474     | 90.474     | 90.474     |   0.0 |  0.34
Output  | 0.39346    | 0.39346    | 0.39346    |   0.0 |  0.00
Modify  | 264.7      | 264.7      | 264.7      |   0.0 |  1.00
Other   |            | 18.36      |            |       |  0.07

Nlocal:    2004 ave 2004 max 2004 min
Histogram: 1 0 0 0 0 0 0 0 0 0
Nghost:    11206 ave 11206 max 11206 min
Histogram: 1 0 0 0 0 0 0 0 0 0
Neighs:    708486 ave 708486 max 708486 min
Histogram: 1 0 0 0 0 0 0 0 0 0

Total # of neighbors = 708486
Ave neighs/atom = 353.536
Ave special neighs/atom = 2.34032
Neighbor list builds = 91099
Dangerous builds = 0

#write_restart     restart.peptide.${rep}.*
#write_data        data.peptide.${rep}

quit
