LAMMPS (30 Mar 2018)
Processor partition = 0
  using 1 OpenMP thread(s) per MPI task
# Must be run with at LEAST 2 procs in 'partition mode'

units           real
atom_style      full

pair_style        lj/charmm/coul/long 8.0 10.0 10.0
bond_style        harmonic
angle_style       charmm
dihedral_style    charmm
improper_style    harmonic
kspace_style      pppm 0.0001

# Define variables
variable tlo world 220 270
variable thi world 300 350
variable rep world 0 1
variable temp equal 305.0
variable steps equal 1000000

read_data         data.peptide
  orthogonal box = (36.8402 41.0137 29.7681) to (64.2116 68.3851 57.1395)
  2 by 2 by 2 MPI processor grid
  reading atoms ...
  2004 atoms
  reading velocities ...
  2004 velocities
  scanning bonds ...
  3 = max bonds/atom
  scanning angles ...
  6 = max angles/atom
  scanning dihedrals ...
  14 = max dihedrals/atom
  scanning impropers ...
  1 = max impropers/atom
  reading bonds ...
  1365 bonds
  reading angles ...
  786 angles
  reading dihedrals ...
  207 dihedrals
  reading impropers ...
  12 impropers
  4 = max # of 1-2 neighbors
  7 = max # of 1-3 neighbors
  14 = max # of 1-4 neighbors
  18 = max # of special neighbors

neighbor          2.0 bin
neigh_modify      delay 5

timestep          2.0

thermo_style      custom step temp pe etotal enthalpy press
thermo            50

fix               fxnvt all nvt temp ${temp} ${temp} 100.0 tchain 1
fix               fxnvt all nvt temp 305 ${temp} 100.0 tchain 1
fix               fxnvt all nvt temp 305 305 100.0 tchain 1
fix               fxSTMD all stmd ${steps} constant_f 0.001 0.00002 ${tlo} ${thi} -8500 -5500 12 50000 500000 fxnvt no
fix               fxSTMD all stmd 1000000 constant_f 0.001 0.00002 ${tlo} ${thi} -8500 -5500 12 50000 500000 fxnvt no
fix               fxSTMD all stmd 1000000 constant_f 0.001 0.00002 220 ${thi} -8500 -5500 12 50000 500000 fxnvt no
fix               fxSTMD all stmd 1000000 constant_f 0.001 0.00002 220 300 -8500 -5500 12 50000 500000 fxnvt no
fix               2 all shake 0.0001 10 0 b 4 6 8 10 12 14 18 a 31
  19 = # of size 2 clusters
  6 = # of size 3 clusters
  3 = # of size 4 clusters
  640 = # of frozen angles

group             peptide type <= 12
84 atoms in group peptide
#dump              mydump peptide dcd 1000 ${rep}.dcd
#dump_modify       mydump unwrap yes

# Run in partition mode, but with exchanges OFF until STG2
temper/stmd       ${steps} 1000 fxSTMD fxnvt 0 12345 off
temper/stmd       1000000 1000 fxSTMD fxnvt 0 12345 off
PPPM initialization ...
  using 12-bit tables for long-range coulomb (../kspace.cpp:321)
  G vector (1/distance) = 0.268725
  grid = 15 15 15
  stencil order = 5
  estimated absolute RMS force accuracy = 0.0228209
  estimated relative force accuracy = 6.87243e-05
  using double precision FFTs
  3d grid and FFT values/proc = 2744 512
RESTMD: #replicas= 2  walker= 0
STMD: STAGE= 1, #bins= 251  binsize= 12.000000
  Emin= -8500.000000 Emax= -5500.000000 f-value= 1.024290 df= 0.001000
  f-tolerances: STG3= 1.000480 STG4= 1.000048
Neighbor list info ...
  update every 1 steps, delay 5 steps, check yes
  max neighbors/atom: 2000, page size: 100000
  master list distance cutoff = 12
  ghost atom cutoff = 12
  binsize = 6, bins = 5 5 5
  1 neighbor lists, perpetual/occasional/extra = 1 0 0
  (1) pair lj/charmm/coul/long, perpetual
      attributes: half, newton on
      pair build: half/bin/newton
      stencil: half/bin/3d/newton
      bin: standard
  STMD DIG: istep= 0  TSC1= 50000 Tlow= 0.983286
Per MPI rank memory allocation (min/avg/max) = 15.04 | 15.15 | 15.43 Mbytes
Step Temp PotEng TotEng Enthalpy Press 
       0    303.06656   -6135.9847   -4916.7176   -4977.5114   -203.27973 
      50    296.24282   -6119.2434    -4927.429   -5485.9724   -1867.6334 
     100    305.70481   -6187.7002   -4957.8192   -5219.8776   -876.25939 
     150    295.16212   -6193.8159   -5006.3491    -5522.498   -1725.8763 
     200    296.28989   -6165.4365   -4973.4326   -5304.5345    -1107.124 
     250    324.62361   -6208.8734   -4902.8802   -4982.2883   -265.52151 
     300    305.35273   -6151.3148   -4922.8502   -4948.4446   -85.581412 
     350    311.27694   -6216.4779   -4964.1796   -5476.2208   -1712.1412 
     400    297.47967   -6213.5634    -5016.773   -5421.3834   -1352.9187 
     450    299.74602   -6268.9348   -5063.0266   -5453.8334   -1306.7626 
     500    296.73708    -6249.893   -5056.0901   -5515.6066   -1536.5115 
     550    300.95248   -6215.1466   -5004.3846   -5244.5101   -802.92117 
     600    312.12165   -6187.0364   -4931.3398   -5284.0674   -1179.4354 
     650     306.6471    -6150.592   -4916.9201   -5202.8089   -955.94246 
     700    297.36305   -6154.5014   -4958.1801   -5078.5374   -402.44543 
     750    302.42807   -6202.5624    -4985.864   -5599.0619   -2050.3844 
     800    299.77684    -6196.071   -4990.0388   -5250.7924   -871.89654 
     850    311.77445   -6230.5872   -4976.2874   -5541.8027   -1890.9456 
     900    295.45582   -6159.4908   -4970.8425   -5171.1974   -669.93794 
     950    317.05423   -6215.4446   -4939.9037   -5463.7903   -1751.7493 
    1000    304.60367   -6195.4703   -4970.0192   -5484.9591   -1721.8337 
    1050    302.96635   -6259.4989    -5040.635   -5629.3837   -1968.6323 
    1100    292.96441   -6268.7906   -5090.1654   -5772.5743   -2281.8092 
    1150    294.63334    -6251.108   -5065.7686   -5573.8855   -1699.0192 
    1200    303.62862   -6205.6923    -4984.164    -5358.767   -1252.5815 
    1250    305.93301   -6161.7993   -4931.0003   -5364.8756   -1450.7734 
    1300      301.151   -6159.5471   -4947.9865   -5148.8079   -671.49794 
    1350    309.53211   -6238.8982   -4993.6196   -5785.9434   -2649.3382 
    1400    306.81541   -6237.9394   -5003.5904   -5660.8055   -2197.5673 
    1450    304.09036   -6249.6645   -5026.2786   -5543.9739   -1731.0471 
    1500    303.59925   -6270.4834   -5049.0733   -5622.1306    -1916.164 
    1550    298.77748   -6262.4998   -5060.4881   -5663.1159   -2015.0404 
    1600    308.80077    -6301.523   -5059.1867   -5935.6728   -2930.7565 
    1650    308.58918   -6290.6916   -5049.2065   -5428.4907   -1268.2341 
    1700    301.58874   -6251.3295   -5038.0079   -5140.5845   -342.99133 
    1750    299.52964   -6231.3047    -5026.267   -5359.9722    -1115.829 
    1800    305.11287    -6211.826   -4984.3264   -4959.1757    84.097853 
    1850    310.99114   -6201.8424   -4950.6939    -5484.642   -1785.3925 
    1900    314.84589    -6209.026   -4942.3695   -5262.6441   -1070.9204 
    1950    307.02837   -6226.9472   -4991.7414   -5437.0013   -1488.8406 
    2000     307.2798   -6303.2409   -5067.0236   -5772.3992   -2358.6045 
    2050    295.92904   -6315.9752   -5125.4231   -5678.4142   -1849.0675 
    2100    297.92427   -6322.0101    -5123.431   -5431.5262   -1030.1953 
    2150    303.32466   -6294.4637   -5074.1583   -5620.4683   -1826.7277 
    2200    318.06655   -6309.9981   -5030.3846   -5577.2196   -1828.4834 
    2250    314.19621   -6317.2704   -5053.2277   -5560.7664    -1697.086 
    2300    292.29666   -6288.0859   -5112.1473   -5710.1969   -1999.7324 
    2350    297.85753   -6301.9414   -5103.6308   -5767.2098   -2218.8467 
    2400    301.26125    -6262.519   -5050.5149   -5472.2883   -1410.3077 
    2450      316.062   -6265.1013   -4993.5523    -5184.143   -637.28889 
    2500    305.59224    -6217.539   -4988.1109   -5497.4703    -1703.174 
    2550    312.09724   -6264.7323   -5009.1339   -5698.6048   -2305.4229 
    2600    303.10231   -6269.3897   -5049.9788   -5576.5033   -1760.5698 
    2650    308.16408   -6312.2287   -5072.4537   -5910.1045   -2800.9005 
    2700    308.85949   -6326.2246   -5083.6519   -5636.9852   -1850.2119 
    2750    305.45523   -6339.1216   -5110.2447   -6118.8155   -3372.4153 
    2800    296.24198    -6290.866   -5099.0549   -5384.4708   -954.36148 
    2850    309.23702   -6283.2272   -5039.1358   -5488.9595   -1504.1009 
    2900    310.67425   -6224.8675   -4974.9939   -5081.1727   -355.03622 
    2950    316.01554    -6219.011    -4947.649   -5093.2691   -486.91825 
    3000    311.88497   -6238.1875   -4983.4431   -5351.0966   -1229.3438 
    3050    312.33147   -6290.7024   -5034.1617   -5601.4942   -1897.0216 
    3100    286.31094   -6260.8925    -5109.035   -5458.0388   -1166.9838 
    3150    307.81236    -6341.496   -5103.1361   -5833.9475   -2443.6554 
    3200    298.03132   -6301.0883   -5102.0785   -5784.6117   -2282.2247 
    3250    293.83131   -6264.8624   -5082.7497   -5694.1607   -2044.4097 
    3300    308.33951    -6254.892   -5014.4113   -5627.7124   -2050.7297 
    3350    311.72171   -6174.3928   -4920.3052   -5317.7003   -1328.7925 
    3400    324.58433   -6158.2986   -4852.4634   -5180.5546   -1097.0572 
    3450    317.54547   -6162.7209   -4885.2037   -5293.3147   -1364.6237 
    3500    295.54301   -6143.1317   -4954.1327   -5207.0456   -845.67926 
    3550    290.59515   -6134.3506   -4965.2573   -5396.2785   -1441.2301 
    3600    299.93088   -6137.3579    -4930.706   -4873.3703    191.71655 
    3650    310.69294   -6174.6695   -4924.7208   -5116.9072   -642.62453 
    3700    301.54695   -6159.0857   -4945.9322    -5048.137   -341.74823 
    3750    303.71527   -6206.1479    -4984.271   -5440.3616   -1525.0561 
    3800     296.7674   -6228.3251   -5034.4002   -5358.7328   -1084.4892 
    3850    300.81581   -6260.2972   -5050.0852   -5625.8141   -1925.0973 
    3900    301.98751   -6241.1607   -5026.2348   -5373.9027    -1162.517 
    3950    306.92671    -6241.097   -5006.3001   -5255.3813   -832.86692 
    4000    295.51896   -6191.8594   -5002.9571   -5275.0896     -909.945 
    4050    300.88122   -6217.1804   -5006.7052   -5292.5713   -955.86692 
    4100    303.87697   -6237.3763   -5014.8489   -5108.3571   -312.66852 
    4150    301.96662    -6245.502   -5030.6601   -5432.9636   -1345.2052 
    4200     294.3616   -6258.0398   -5073.7937   -5666.8227   -1982.9446 
    4250    310.93547   -6340.4041   -5089.4796   -6326.8845    -4137.581 
    4300    307.81027   -6357.5368   -5119.1853    -5809.571   -2308.4818 
    4350    307.64161   -6361.8132   -5124.1403   -5853.2099   -2437.8313 
    4400    299.47824   -6315.8533   -5111.0224   -5647.5919    -1794.158 
    4450    315.08006   -6367.7161   -5100.1175   -5914.9565   -2724.6233 
    4500    305.68518   -6341.8344   -5112.0324   -6295.8438   -3958.3773 
    4550    305.52243   -6338.3145   -5109.1673   -5866.5791    -2532.601 
    4600    298.05974   -6309.2844   -5110.1603   -5748.3523   -2133.9588 
    4650    301.72688   -6292.7831   -5078.9057   -5561.0816   -1612.2789 
    4700    308.16891   -6263.2137   -5023.4194   -5630.9987   -2031.5973 
    4750    310.77102   -6224.4327   -4974.1698   -4987.8737   -45.822333 
    4800    310.71364   -6196.2503   -4946.2182   -5276.9055   -1105.7379 
    4850    309.43925   -6198.6612   -4953.7561   -5103.0158    -499.0882 
    4900     304.5026   -6211.7733   -4986.7289   -5119.4686   -443.84904 
    4950    306.13845   -6276.6796    -5045.054   -5966.2391    -3080.219 
    5000    311.15079   -6359.1716   -5107.3809   -6131.6586   -3424.9354 
    5050    293.90904   -6346.9089   -5164.4834   -6249.4523   -3627.8719 
    5100    296.21205   -6348.1182   -5156.4276   -6305.1836   -3841.1605 
    5150     306.9114   -6341.8576   -5107.1224   -5915.9843   -2704.6373 
    5200    306.58596   -6326.9634   -5093.5374   -5634.3011   -1808.1821 
    5250    310.94175   -6337.9074   -5086.9577   -5688.8504   -2012.5826 
    5300    302.63762   -6284.9451   -5067.4037   -5400.0441   -1112.2683 
    5350    300.26494   -6281.6685   -5073.6726   -5543.6682   -1571.5509 
    5400    296.47352   -6251.1912   -5058.4486   -5281.8282   -746.92693 
    5450     304.9474    -6207.136   -4980.3022   -4937.6617    142.57932 
    5500    305.04135   -6137.8665   -4910.6547   -5074.9534   -549.37508 
    5550    310.02792   -6139.8231   -4892.5498    -4882.446    33.784777 
    5600    318.96681   -6203.6721   -4920.4367   -5140.1304   -734.60205 
    5650    308.70535   -6235.7574   -4993.8049   -5507.2948   -1716.9854 
    5700     305.2281   -6297.4577   -5069.4945   -5703.0988   -2118.6186 
    5750    295.28237   -6295.8188   -5107.8683   -5742.8963   -2123.3791 
    5800    300.72586   -6329.4858   -5119.6356   -5499.2659   -1269.3914 
    5850    292.22873   -6289.6352   -5113.9698   -5368.7447   -851.90521 
    5900    301.01934   -6239.0086   -5027.9777   -5350.2371   -1077.5569 
    5950    311.22241    -6184.594   -4932.5151   -4935.8354   -11.102088 
    6000    315.88362   -6155.7078   -4884.8764   -5086.4752   -674.09732 
    6050    317.07426   -6186.3243   -4910.7029   -5091.9534   -606.05758 
    6100    304.15454   -6205.5066   -4981.8625   -5602.1097   -2073.9558 
    6150    295.47905   -6227.0544   -5038.3127   -5332.5362   -983.81174 
    6200    297.34052   -6240.1713   -5043.9406    -5547.211   -1682.8136 
    6250    297.90886   -6196.5351    -4998.018   -5282.5235   -951.31741 
    6300    301.58614   -6167.1277   -4953.8165   -5086.7642   -444.54496 
    6350    304.01266   -6132.1011   -4909.0278   -4968.9603   -200.39989 
    6400    301.29023   -6104.2201   -4892.0994   -5149.2134   -859.72681 
    6450    310.50666   -6168.6895   -4919.4902   -5126.1793   -691.11811 
    6500    295.23672     -6201.36   -5013.5932    -5456.403   -1480.6481 
    6550    296.29387    -6250.159   -5058.1392   -5707.0077   -2169.6584 
    6600    307.70127   -6270.2912   -5032.3783   -5846.2561   -2721.4095 
    6650    299.42772   -6193.9302   -4989.3026   -5070.1603   -270.36836 
    6700    313.01989    -6235.023   -4975.7127   -5283.7126   -1029.8767 
    6750    290.78724   -6169.5379   -4999.6718   -5259.1101   -867.49852 
    6800    295.24692   -6166.0471   -4978.2392   -5281.1802   -1012.9607 
    6850    319.52849   -6220.5184   -4935.0233   -5487.8356   -1848.4697 
    6900     304.0128   -6166.2572   -4943.1833   -5223.4637   -937.18936 
    6950    304.87428   -6171.7471   -4945.2074   -5384.2931   -1468.1958 
    7000    310.86051    -6179.702    -4929.079   -5383.7843   -1520.4237 
    7050    300.82263   -6159.1372   -4948.8976   -5248.2017   -1000.8001 
    7100    311.40592   -6246.3137   -4993.4965   -5602.1106   -2035.0574 
    7150       299.36   -6284.0508   -5079.6956   -5599.2659   -1737.3168 
    7200    308.23888   -6392.9372   -5152.8613   -5848.0678   -2324.6012 
    7250    292.45595   -6383.5451   -5206.9655   -5983.2395    -2595.671 
    7300    297.42552   -6365.5557   -5168.9831   -6145.5225   -3265.3101 
    7350    320.71808   -6371.5773   -5081.2964   -6159.9603   -3606.7897 
    7400    308.72452   -6302.6083   -5060.5787   -5709.1734   -2168.7428 
    7450    298.69104   -6262.8679    -5061.204   -6025.8623   -3225.5826 
    7500    304.13603   -6286.2133   -5062.6436   -5491.9973   -1435.6544 
    7550    321.75675   -6378.2332   -5083.7736   -5836.6173   -2517.3261 
    7600    297.34559   -6362.9634   -5166.7124   -6210.7651   -3491.0582 
    7650     298.5518   -6408.2609   -5207.1572   -5832.6072   -2091.3526 
    7700    298.57031   -6384.7216   -5183.5434   -6182.9285   -3341.7005 
    7750    310.76003   -6343.7226   -5093.5039   -5843.2987   -2507.1312 
    7800    308.20828      -6268.7   -5028.7472   -5512.5337   -1617.6641 
    7850    314.79033   -6281.2403   -5014.8073   -5385.5024    -1239.514 
    7900    302.02363   -6268.8632    -5053.792   -5648.3135   -1987.9355 
    7950    306.28707   -6324.1791   -5091.9556   -5872.2451    -2609.098 
    8000    304.42511   -6338.1029   -5113.3702   -6087.0665   -3255.8033 
    8050    308.54844    -6346.653   -5105.3317   -6324.4963   -4076.5895 
    8100    302.75292   -6326.1336   -5108.1283   -5744.0528   -2126.3767 
    8150    309.02049   -6395.1739   -5151.9536   -5916.2765   -2555.7097 
    8200    289.41912   -6381.6255   -5217.2634   -6289.5398   -3585.4312 
    8250    300.71678   -6411.2108   -5201.3972   -5953.8525   -2516.0277 
    8300    307.86045   -6377.2159   -5138.6626   -5981.4038   -2817.9215 
    8350    303.21574   -6300.5132    -5080.646   -5641.9755   -1876.9493 
    8400     313.5986   -6317.7728   -5056.1343   -5858.5512   -2683.0868 
    8450    306.86073   -6335.0642   -5100.5328   -5795.4556   -2323.6527 
    8500     305.4264   -6398.0193   -5169.2584   -6124.3679   -3193.6539 
    8550     297.7157   -6406.8258   -5209.0858   -5877.1824   -2233.9524 
    8600    306.20448   -6426.5681   -5194.6769   -5605.6064   -1374.0482 
    8650     305.0649   -6378.1571   -5150.8506   -5948.4368   -2666.9343 
    8700    307.28956     -6340.78   -5104.5234    -6085.078    -3278.736 
    8750    297.19434   -6253.6618   -5058.0193   -5263.2228   -686.15062 
    8800     309.9163   -6252.9465   -5006.1222   -5247.9395   -808.57808 
    8850    298.58358   -6185.8287   -4984.5971   -5413.0947   -1432.7919 
    8900     306.5703   -6196.3894   -4963.0264   -5511.4519   -1833.8013 
    8950     312.9098   -6225.3806   -4966.5132   -5539.0565   -1914.4454 
    9000    304.84481   -6256.8927   -5030.4715   -5427.0824   -1326.1703 
    9050    304.14943   -6322.3952   -5098.7716   -6012.9216   -3056.6949 
    9100    309.00655   -6351.0762    -5107.912   -6137.0102   -3441.0538 
    9150    310.35692   -6338.9521   -5090.3552   -5790.4165   -2340.8346 
    9200    311.94689   -6350.1609   -5095.1674   -6190.0656   -3661.0732 
    9250    298.91848   -6347.7329    -5145.154    -6272.914    -3770.955 
    9300    302.90617    -6404.865   -5186.2432   -6256.2222   -3577.7494 
    9350    314.19507   -6431.2945   -5167.2563    -5928.812   -2546.4568 
    9400    301.81524   -6373.7082   -5159.4753    -6014.046   -2857.4764 
    9450    296.60464   -6345.1827   -5151.9126   -6022.3455   -2910.5158 
    9500    305.78349   -6361.5457   -5131.3482   -5763.3912   -2113.3981 
    9550     314.8478    -6392.874   -5126.2098   -6125.6059   -3341.7375 
    9600     303.3855   -6371.0519   -5150.5017   -5788.4358   -2133.0962 
    9650    306.71012   -6417.2343   -5183.3089   -6101.7634   -3071.0882 
    9700    296.34515   -6412.5238   -5220.2976   -6232.4738   -3384.4708 
    9750     300.1822   -6407.2748   -5199.6118   -6262.5065   -3554.0613 
    9800     314.5234   -6424.0273   -5158.6682   -6304.3198   -3830.7804 
    9850    292.69677   -6334.8405   -5157.2921   -5470.5644   -1047.5063 
    9900     314.8816   -6391.6137   -5124.8135    -6131.419   -3365.8437 
    9950    305.40699   -6354.5909    -5125.908   -5618.2937   -1646.4177 
   10000    305.72587   -6365.6772   -5135.7114   -6058.2089   -3084.6071 
   10050    317.88651   -6401.7015   -5122.8123   -6180.7845   -3537.6017 
   10100    295.10805   -6354.9497   -5167.7006   -5828.8837   -2210.8356 
   10150    304.87706   -6426.1405   -5199.5896   -6309.7633   -3712.1508 
   10200    294.05942   -6433.5948   -5250.5643   -6343.6898   -3655.1455 
   10250    298.69657   -6442.3206   -5240.6344   -6009.1125   -2569.6038 
   10300    309.12943   -6426.0587   -5182.4001   -6104.9582   -3084.8097 
   10350    322.26643   -6453.2473   -5156.7373   -6015.0969   -2870.1458 
   10400     296.7495    -6413.999   -5220.1461   -5963.6238   -2486.0083 
   10450    295.84664   -6441.2103   -5250.9897   -6010.8391   -2540.7514 
   10500    304.38142    -6452.434   -5227.8771   -6460.5512   -4121.7624 
   10550    301.53145    -6369.108   -5156.0168   -6077.8986   -3082.5483 
   10600    313.83048    -6324.645   -5062.0736   -5389.4654   -1094.7184 
   10650    313.93865   -6269.1124   -5006.1058   -5655.8419   -2172.5595 
   10700    316.77766   -6263.9862    -4989.558   -5476.1509   -1627.0483 
   10750    294.66755   -6197.1425   -5011.6655    -5421.974   -1371.9715 
   10800    311.29885   -6278.8535   -5026.4671    -5519.996   -1650.2403 
   10850    297.44158   -6257.1949   -5060.5577   -5607.2804   -1828.1077 
   10900    294.77949   -6246.1041   -5060.1768   -5328.1764   -896.12539 
   10950    312.72548   -6277.2444   -5019.1185    -5422.014   -1347.1847 
   11000    308.19269   -6240.0527   -5000.1627    -5086.575   -288.94176 
   11050    310.53348   -6225.9684   -4976.6611   -5369.9596   -1315.0945 
   11100    308.57782   -6230.1486   -4988.7092   -5251.3452   -878.19071 
   11150    284.99674   -6171.2546   -5024.6842    -5223.515    -664.8419 
   11200    305.16503   -6260.6746   -5032.9651   -5641.2608   -2033.9926 
   11250    303.35119   -6271.6353   -5051.2231   -5469.6088   -1398.9799 
   11300    302.93893    -6301.247   -5082.4934   -5674.4546    -1979.374 
   11350    295.18257   -6311.6138   -5124.0648   -5627.2448   -1682.5116 
   11400    298.73401   -6341.3024   -5139.4657   -5543.0675   -1349.5463 
   11450    309.33782   -6359.0646   -5114.5676   -5761.8857   -2164.4743 
   11500    313.54141   -6318.9176   -5057.5092   -5721.4443   -2220.0375 
   11550    317.74844   -6284.9052   -5006.5715   -5486.9645   -1606.3174 
   11600    316.20127   -6304.2145   -5032.1052    -5530.769   -1667.4104 
   11650    298.47971   -6307.7733   -5106.9596   -5826.4681   -2405.8612 
   11700    313.41684   -6397.3815   -5136.4742    -6174.462   -3470.7786 
   11750    302.95918   -6408.3836   -5189.5485   -6386.1279   -4001.0702 
   11800    296.54744   -6398.9707   -5205.9307   -6207.2519   -3348.1743 
   11850    305.38894   -6371.6644   -5143.0541   -6363.9598   -4082.4115 
   11900    304.46427   -6270.0039   -5045.1137   -5591.3944   -1826.6297 
   11950    312.39026   -6192.7734   -4935.9961   -5246.2335   -1037.3581 
   12000    309.87772   -6121.7697   -4875.1006   -4779.3245    320.25206 
   12050    307.26429   -6096.9108   -4860.7558   -5170.2447   -1034.8556 
   12100    307.42838   -6136.1032   -4899.2881   -5411.7082   -1713.4081 
   12150    298.37106   -6165.0684   -4964.6918   -5604.6626   -2139.9069 
   12200    304.85972   -6227.4892   -5001.0081   -5285.3278   -950.69594 
   12250    297.38613   -6237.5089   -5041.0948    -5450.879   -1370.2186 
   12300    301.06808   -6296.9162   -5085.6892   -5806.2006   -2409.2148 
   12350    297.38206   -6294.2191   -5097.8214   -5794.4114   -2329.2277 
   12400    313.44932   -6350.1496   -5089.1117   -5827.0398    -2467.452 
   12450    298.00832   -6273.3002   -5074.3829   -5450.6932   -1258.2902 
   12500    304.00979   -6221.7842   -4998.7225   -5254.9087   -856.62443 
   12550    310.55496   -6186.5586   -4937.1649   -5147.5474   -703.46784 
   12600    314.53802   -6179.2909    -4913.873   -5351.4889   -1463.2809 
   12650    316.75731   -6190.7531   -4916.4068    -5066.578   -502.13594 
   12700    300.03287   -6162.8107   -4955.7485   -5370.7988   -1387.8273 
   12750    312.75272   -6235.2377   -4977.0023   -5174.3704   -659.95098 
   12800    298.90375   -6237.2427    -5034.723    -5254.038   -733.33589 
   12850    291.27913   -6221.4305   -5049.5854   -5466.7068   -1394.7523 
   12900    312.21644   -6246.4914   -4990.4135   -5478.9568     -1633.57 
   12950    306.68797    -6187.219   -4953.3826   -5278.1462   -1085.9303 
   13000    305.46862   -6173.0339    -4944.103   -4901.8506    141.28198 
   13050     309.3761   -6209.8712   -4965.2202   -5272.0125   -1025.8387 
   13100    301.10707   -6209.6487   -4998.2649   -5055.3666   -190.93428 
   13150    308.52807   -6305.6934   -5064.4541   -5892.9875    -2770.414 
   13200    297.80236   -6348.6331   -5150.5444    -6011.959   -2880.3606 
   13250    293.07416    -6382.001   -5202.9343   -6121.3461   -3070.9453 
   13300    292.54668   -6374.7119   -5197.7673   -5909.1887   -2378.8198 
   13350    309.52181   -6388.9103   -5143.6731   -5848.5359   -2356.8897 
   13400    314.07292   -6355.0281   -5091.4814   -5876.6403   -2625.3804 
   13450    304.59243   -6307.2289   -5081.8232   -5594.1033   -1712.9402 
   13500    293.32827   -6287.6474   -5107.5585   -5839.8295   -2448.5361 
   13550    305.13826   -6339.8243   -5112.2226   -5929.9956   -2734.4339 
   13600    294.67077   -6276.8796   -5091.3896   -5774.9127    -2285.535 
   13650    306.27216   -6246.6685    -5014.505   -5728.0855   -2386.0396 
   13700    311.31435   -6205.0318   -4952.5831   -5277.3589   -1085.9714 
   13750    311.24928   -6201.5589   -4949.3719   -5520.6384   -1910.1761 
   13800    301.90738   -6167.3435     -4952.74   -5426.9029   -1585.4855 
   13850    309.91144   -6222.3896   -4975.5849   -5528.7024   -1849.4903 
   13900    299.93205   -6258.8762   -5052.2196   -5896.4727   -2822.9769 
   13950    300.97943   -6321.1774    -5110.307   -5946.7501   -2796.8621 
   14000     303.2121   -6365.7783   -5145.9257   -6039.6081   -2988.2565 
   14050    296.40629   -6342.1532    -5149.681   -5660.6321   -1708.4961 
   14100    302.22966   -6335.7349   -5119.8348   -5593.7978    -1584.817 
   14150     302.3359   -6341.9234   -5125.5959   -5629.9869   -1686.5608 
   14200    306.70988     -6377.86   -5143.9355   -6061.8655   -3069.3345 
   14250    308.60898   -6402.6005   -5161.0358   -6442.5943   -4285.2199 
   14300    304.05268   -6435.5789   -5212.3446   -6482.9528   -4248.6045 
   14350    302.75007   -6456.7751   -5238.7813   -6346.1377   -3702.7303 
   14400    298.01957   -6433.7975   -5234.8349   -6454.4296   -4078.0278 
   14450     299.7022   -6403.8743   -5198.1424   -6218.7189   -3412.5596 
   14500    312.99032   -6392.8694    -5133.678   -6062.7802   -3106.6915 
   14550    313.02122   -6352.7331   -5093.4175   -6023.3561   -3109.4885 
   14600    302.76977   -6302.1459   -5084.0729   -5380.5546   -991.36274 
   14650    304.11189   -6282.1748   -5058.7022   -5868.9066   -2709.1263 
   14700    304.77522   -6240.1528   -5014.0116   -5259.3441   -820.33238 
   14750    309.67335   -6213.8771   -4968.0303   -5307.4247   -1134.8523 
   14800    325.99863   -6242.6402   -4931.1151   -5486.2763   -1856.3241 
   14850    319.04756   -6233.1392    -4949.579   -5335.8534   -1291.6077 
   14900    305.18282   -6245.2806   -5017.4996   -5544.5341   -1762.2749 
   14950    285.46164    -6207.459   -5059.0183   -5639.0447    -1939.467 
   15000    304.80887   -6208.2546    -4981.978   -5376.3696   -1318.7496 
   15050    306.67204   -6141.5701   -4907.7978   -5010.2513   -342.57951 
   15100    306.88367   -6118.9188   -4884.2951   -5194.2292   -1036.3443 
   15150    304.76443   -6118.8619   -4892.7641   -5336.7336   -1484.5259 
   15200    305.51625   -6148.5526   -4919.4302   -5425.0164   -1690.5571 
   15250    316.32969    -6237.783   -4965.1571   -5659.2137   -2320.7563 
   15300    308.76569   -6281.5191   -5039.3239   -5657.0572   -2065.5497 
   15350    289.72484    -6275.457    -5109.865   -5812.1473    -2348.261 
   15400    304.36098   -6319.1778   -5094.7031   -5962.8194   -2902.7693 
   15450    302.34704   -6262.5685   -5046.1961    -5602.197   -1859.1316 
   15500    314.29871   -6268.9674   -5004.5122     -5546.24   -1811.4057 
   15550    312.99831    -6244.807   -4985.5835   -5337.5141   -1176.7703 
   15600    308.60938   -6255.2984   -5013.7319    -5587.031   -1916.9725 
   15650     301.0194   -6301.6178   -5090.5866    -5882.519   -2648.0292 
   15700     289.5832   -6308.3614   -5143.3392   -6081.2817   -3136.2515 
   15750    293.72716   -6304.6953   -5123.0016   -5878.7884    -2527.167 
   15800    312.47714   -6318.0703   -5060.9436   -5793.8993   -2450.8257 
   15850    310.94748   -6289.1068    -5038.134   -5309.3692    -906.9444 
   15900    299.84893   -6240.1761   -5033.8539   -5194.7063   -537.85115 
   15950    298.89491   -6208.8812   -5006.3971   -5295.3084   -966.04932 
   16000    306.65781   -6180.6852   -4946.9702    -5244.011   -993.23218 
   16050    311.61136    -6146.154   -4892.5103   -5181.9573   -967.84012 
   16100    310.13177   -6147.0413   -4899.3502   -5337.2907   -1464.3665 
   16150    307.18653   -6177.6463   -4941.8042    -5557.749   -2059.5693 
   16200    304.49067   -6205.9472   -4980.9508   -5603.1545   -2080.4978 
   16250    304.64689   -6247.1512   -5021.5263   -5574.7897   -1849.9779 
   16300    286.97372   -6201.6811   -5047.1571   -5384.8124    -1129.037 
   16350    311.31045   -6235.2453   -4982.8123   -5656.9171   -2254.0425 
   16400    317.07391   -6189.4406   -4913.8206   -5302.1735   -1298.5577 
   16450    314.52135     -6155.63   -4890.2791   -5068.6619   -596.46856 
   16500    316.99108   -6167.3016   -4892.0148   -5409.6896   -1730.9783 
   16550    305.49449   -6143.3463   -4914.3114   -5519.8905   -2024.9091 
   16600    304.62149   -6165.0272   -4939.5045   -5519.8212   -1940.4379 
   16650    308.30743   -6216.1423   -4975.7907   -5286.3314   -1038.3724 
   16700    287.53054   -6186.5243   -5029.7602   -5573.0281   -1816.5558 
   16750    294.31327   -6213.1715   -5029.1198   -5299.3385   -903.54554 
   16800    313.39049   -6276.3812   -5015.5799   -5765.4585   -2507.4116 
   16850    310.11166   -6299.8815   -5052.2713   -5916.4136   -2889.4817 
   16900    305.36267   -6338.7088   -5110.2043   -6085.0154   -3259.5311 
   16950    313.78205    -6414.171   -5151.7944   -6291.1546   -3809.7433 
   17000     302.5835   -6432.8924   -5215.5687   -6412.2815   -4001.5165 
   17050    305.50813   -6468.4429   -5239.3531   -6067.9598   -2770.6589 
   17100    301.73789   -6455.8794   -5241.9576   -6042.0083   -2675.1747 
   17150    308.11695   -6469.3656   -5229.7803   -6298.2189   -3572.5987 
   17200    305.07357   -6452.9387   -5225.5972   -6079.8283   -2856.3409 
   17250     304.4193   -6458.1058   -5233.3966   -6122.3398     -2972.41 
   17300     295.7702   -6437.6168   -5247.7037   -6019.1675   -2579.5871 
   17350    304.15643    -6441.014   -5217.3623   -6138.7129   -3080.7724 
   17400    301.10044    -6372.388   -5161.0308   -6038.3018   -2933.3807 
   17450    305.93758   -6341.9834    -5111.166   -5793.4736   -2281.4708 
   17500    311.61781   -6339.7678   -5086.0983   -5837.6636   -2513.0516 
   17550    302.29942   -6352.8973   -5136.7165   -5987.7522   -2845.6562 
   17600    306.37001   -6428.6851    -5196.128   -6187.6692   -3315.4727 
   17650    307.10959   -6471.6212   -5236.0886   -6487.9191   -4185.8164 
   17700    300.09157   -6450.5379   -5243.2395   -6375.6443   -3786.4864 
   17750    299.40352   -6435.7694   -5231.2391   -6266.4205   -3461.3948 
   17800    297.26408   -6397.6019   -5201.6788   -6396.4655   -3995.0759 
   17850    302.14958   -6347.9037   -5132.3257     -6144.81   -3385.5012 
   17900    304.88186   -6279.2851   -5052.7149    -5593.282   -1807.5249 
   17950    315.89861   -6275.3236   -5004.4319   -5481.7094   -1595.8998 
   18000    303.97855   -6257.0891    -5034.153   -5511.0986   -1594.7902 
   18050     298.5755   -6296.9799   -5095.7808   -5589.7426   -1651.6879 
   18100    298.99655   -6372.1142   -5169.2212   -6399.3457   -4113.2369 
   18150    301.79278   -6412.7247   -5198.5822   -6203.0214   -3358.6002 
   18200    306.92962    -6440.858   -5206.0494   -6166.6773   -3212.1059 
   18250    303.35508   -6406.2089   -5185.7811   -6112.7122   -3099.4321 
   18300     302.8993    -6349.594   -5130.9998   -5962.0293   -2778.7603 
   18350    317.65309   -6346.9723   -5069.0222   -5648.7135   -1938.3466 
   18400    317.25015    -6339.796   -5063.4669   -5572.2058   -1701.0993 
   18450    317.60236   -6408.7031    -5130.957    -6227.671   -3667.1447 
   18500    288.35281   -6384.3986   -5224.3265   -6589.0076   -4563.1617 
   18550    302.25481   -6455.2224   -5239.2211   -6397.1208   -3871.7349 
   18600    303.84904   -6463.7537   -5241.3387   -6853.2336   -5389.7844 
   18650    298.98633   -6434.5722   -5231.7203    -5931.225   -2338.9736 
   18700    302.51885   -6416.9644   -5199.9008   -6195.3655   -3328.5915 
   18750    310.59951   -6400.4059    -5150.833   -5924.3944    -2586.601 
   18800    307.85106   -6370.4143   -5131.8987   -5932.5358   -2677.1356 
   18850    301.18556   -6362.1961   -5150.4965   -5756.3515   -2025.8317 
   18900    300.13419   -6397.4031   -5189.9332    -6132.997   -3153.3758 
   18950    305.78834   -6450.7752   -5220.5581   -6553.7541   -4457.8829 
   19000    299.34498   -6459.4874   -5255.1926   -6653.7834   -4676.5473 
   19050    300.89281   -6478.1777   -5267.6559   -6470.9398   -4023.4885 
   19100    307.33477   -6496.6685     -5260.23   -6180.4164   -3076.8793 
   19150    295.38994   -6427.9211   -5239.5379   -6011.8384   -2582.3852 
   19200    293.60087   -6336.0985   -5154.9128   -5907.0818   -2515.0701 
   19250    315.54564    -6278.529   -5009.0573   -5492.5459    -1616.668 
   19300     311.1593   -6203.8225   -4951.9975   -5169.6138   -727.65579 
   19350    313.16656   -6208.3542   -4948.4539   -5218.7695   -903.86968 
   19400    299.40886   -6160.2933   -4955.7416   -5135.0572   -599.58784 
   19450    304.15827   -6193.9145   -4970.2554   -5049.5631   -265.18577 
   19500    301.60318   -6194.9511   -4981.5714   -5467.5766   -1625.0831 
   19550    309.88121   -6225.0631     -4978.38   -5657.6894   -2271.4454 
   19600    311.52226   -6237.8606   -4984.5754   -5632.8686   -2167.7348 
   19650    308.03969   -6256.7117   -5017.4372    -5612.707   -1990.4373 
   19700    300.54145   -6266.2295   -5057.1212   -5757.7636   -2342.7778 
   19750    301.07087   -6297.8232    -5086.585   -5608.1045   -1743.8343 
   19800    297.24333   -6296.1861   -5100.3465   -5578.3313   -1598.2648 
   19850    296.45621   -6278.8491   -5086.1761   -5545.6491   -1536.3659 
   19900    313.69831   -6324.8906    -5062.851   -5776.9353   -2387.7242 
   19950    313.04837   -6359.4905   -5100.0656   -5855.7217   -2526.7301 
   20000    288.58327    -6320.999   -5159.9997   -6056.4793   -2997.6096 
   20050    305.67106   -6402.0587   -5172.3135   -6252.8203   -3612.9521 
   20100    302.88169   -6425.4745   -5206.9511   -5910.9145    -2353.882 
   20150    294.95446   -6423.7136   -5237.0824   -6235.2339   -3337.5757 
   20200    311.85623   -6474.5586   -5219.9298   -6672.8226     -4858.12 
   20250    312.71574   -6483.4504   -5225.3637   -6838.6071   -5394.2936 
   20300    306.54607   -6495.6253   -5262.3598    -6236.478   -3257.2143 
   20350    294.29448   -6488.3836   -5304.4075   -6469.8092   -3896.8197 
   20400    301.81885   -6497.1175   -5282.8701   -6584.4151   -4352.0496 
   20450    300.61047   -6436.3481   -5226.9621   -6148.3827   -3081.0063 
   20500    303.20346   -6370.6829   -5150.8651   -6202.4703   -3516.3121 
   20550     315.8684   -6364.2712   -5093.5011   -6103.1949   -3376.1704 
   20600    320.39486   -6386.8406   -5097.8601   -6105.9859   -3370.9273 
   20650    313.82106    -6414.596   -5152.0625   -6513.3473   -4551.8053 
   20700    303.01813   -6441.4245   -5222.3522   -6333.9103   -3716.7796 
   20750    297.28005   -6474.0442   -5278.0569   -6536.9807   -4209.5349 
   20800    291.46091   -6457.6162   -5285.0399   -6411.9811   -3768.2172 
   20850    299.76449    -6416.457   -5210.4745   -6492.7013   -4287.4545 
   20900    313.20339    -6351.797   -5091.7485   -5678.6395   -1962.4208 
   20950     311.3891   -6273.9917   -5021.2423   -5463.3835   -1478.4125 
   21000    315.37061   -6277.7636   -5008.9961    -5463.422   -1519.4895 
   21050    309.11175   -6324.4077   -5080.8202   -5619.0129   -1799.5855 
   21100     306.3233   -6411.6493   -5179.2801   -6348.9319   -3911.0309 
   21150    297.87139   -6445.6393   -5247.2729   -6306.5486     -3541.96 
   21200    303.22743   -6498.2836   -5278.3694   -6483.2952   -4028.9788 
   21250    298.58734   -6504.7381   -5303.4914   -6530.3605   -4102.3517 
   21300     312.6932   -6534.4783   -5276.4823   -5795.2889    -1734.763 
   21350    307.58682   -6476.3164   -5238.8638   -6325.8528   -3634.6265 
   21400    306.57378   -6442.2529   -5208.8759   -6036.9275    -2768.803 
   21450    302.44948   -6407.7441   -5190.9596   -5703.6649   -1714.3617 
   21500    303.55999   -6413.3873   -5192.1351   -5836.5441   -2154.7471 
   21550    307.65839   -6455.0386   -5217.2981   -6194.3996   -3267.1894 
   21600    296.73458   -6469.3709    -5275.578   -6204.0221    -3104.491 
   21650    299.17619   -6522.9915   -5319.3758   -6237.5193   -3070.0483 
   21700    290.71435   -6481.0792   -5311.5063   -6413.9238    -3686.216 
   21750    311.71181   -6484.3441   -5230.2963   -6158.1657   -3102.5695 
   21800    305.97322   -6388.4198   -5157.4589   -5711.4257   -1852.3301 
   21850    316.90402   -6376.7435    -5101.807   -6034.7841   -3119.6485 
   21900    304.86737   -6317.4319     -5090.92   -5324.4621   -780.90777 
   21950    312.87983   -6357.2751   -5098.5283   -5835.5974   -2464.5798 
   22000    305.80529    -6338.523   -5108.2378   -5888.7346   -2609.7916 
   22050    296.58595   -6259.9433   -5066.7483   -5597.0151   -1773.0831 
   22100    302.87777    -6201.849   -4983.3415   -5239.3717   -856.10274 
   22150    330.91602   -6248.9047   -4917.5965   -5347.6206    -1437.896 
   22200    309.82744   -6212.1321   -4965.6654   -5555.7677   -1973.1585 
   22250    306.65778   -6263.0467   -5029.3318   -5404.5223   -1254.5457 
   22300    303.20751   -6321.9281    -5102.094   -6000.6503   -3004.5537 
   22350    305.66138   -6355.9855   -5126.2792   -5860.0649   -2453.6006 
   22400    308.06875   -6392.6018   -5153.2104   -6021.5497    -2903.515 
   22450    294.19302   -6384.4176   -5200.8496   -6109.1912   -3037.2732 
   22500    300.21314   -6428.7821   -5220.9946   -6496.5473   -4265.1379 
   22550    308.30602   -6479.6397   -5239.2938    -6524.478   -4297.3433 
   22600     307.4747   -6501.8866   -5264.8851   -6630.3256   -4565.7006 
   22650    296.94989   -6494.5221    -5299.863   -6297.3071   -3335.2101 
   22700    300.56862   -6516.2483   -5307.0307   -6443.4634   -3799.9542 
   22750    306.05398   -6502.1707    -5270.885   -6474.6564   -4025.1188 
   22800    314.47465   -6500.6673   -5235.5043   -6290.1819   -3526.5851 
   22850    307.11714   -6494.4782   -5258.9152   -6324.5719   -3563.2965 
   22900    290.21978   -6442.4673   -5274.8841   -5908.6618   -2119.1986 
   22950    311.51165   -6444.3266   -5191.0841   -5849.4362   -2201.3694 
   23000    318.75466    -6396.325   -5113.9431   -5546.8013   -1447.3725 
   23050    295.96331    -6310.576    -5119.886   -5660.5598   -1807.8816 
   23100    309.76638    -6352.158   -5105.9369   -6054.9887   -3173.3983 
   23150    294.12452   -6277.0967   -5093.8043   -5769.3782   -2258.9545 
   23200    312.26617   -6326.6706   -5070.3926   -5827.4962   -2531.5705 
   23250    313.38986   -6333.6286   -5072.8298   -5506.7617   -1450.9626 
   23300    295.01344   -6275.8006   -5088.9321   -5810.7436    -2413.562 
   23350     303.7229   -6278.0373   -5056.1297   -5484.9272   -1433.7946 
   23400    305.42491   -6223.5229    -4994.768   -5322.9569   -1097.3839 
   23450    311.05989   -6194.0199   -4942.5948   -5115.9733   -579.73552 
   23500    308.29309   -6204.1071   -4963.8132   -5487.8929   -1752.3953 
   23550    298.43725   -6213.8757   -5013.2328   -5505.0966   -1644.6729 
   23600    302.20648   -6260.2038   -5044.3969    -5454.314    -1370.663 
   23650    299.07094   -6263.1746   -5059.9823   -5792.1031   -2448.0338 
   23700    297.09669   -6230.5597     -5035.31   -5610.9279   -1924.7263 
   23750    296.91693   -6201.7279   -5007.2014   -4995.9499    37.622418 
   23800    302.51421   -6187.8569    -4970.812    -5215.843   -819.32402 
   23850    314.47186   -6229.5315   -4964.3798   -5377.9405   -1382.8464 
   23900    300.10031   -6230.1155    -5022.782   -5805.8072   -2618.2458 
   23950    307.24814   -6309.2121   -5073.1221   -5914.3782   -2812.9555 
   24000    298.12366   -6299.4663    -5100.085   -5352.6917   -844.65548 
   24050     309.2215   -6338.3793   -5094.3503   -6076.2848   -3283.3501 
   24100    306.21939    -6363.569   -5131.6178   -5749.1937   -2065.0235 
   24150    299.92006   -6398.4207   -5191.8123   -5950.4727   -2536.7756 
   24200    294.44674   -6401.1427   -5216.5541   -6274.1765    -3536.432 
   24250    300.71288   -6396.4918   -5186.6939   -5786.5014   -2005.6106 
   24300    307.46568   -6381.2873   -5144.3222   -5921.5728   -2598.9371 
   24350    314.57357   -6378.0031   -5112.4421   -5993.5162   -2946.0974 
   24400    307.49663   -6362.6185   -5125.5288   -5972.8545   -2833.2508 
   24450    304.20924   -6380.0544   -5156.1902   -6236.6969   -3612.9514 
   24500    298.98701   -6378.8562   -5176.0016   -6124.8465   -3172.7064 
   24550    303.07402   -6395.0251    -5175.728    -6051.114   -2927.0775 
   24600    307.13521   -6400.2865   -5164.6509    -6334.006    -3910.039 
   24650    306.12882   -6396.0619    -5164.475   -5906.3221   -2480.5561 
   24700    302.92401   -6350.4227   -5131.7292   -6131.9203   -3344.3956 
   24750    304.82527   -6274.8957   -5048.5531   -5521.8654   -1582.6412 
   24800     307.8941   -6227.4679   -4988.7791    -5364.681   -1256.9243 
   24850     303.0496   -6219.9457   -5000.7469    -5203.619   -678.35516 
   24900     305.3748   -6248.9735   -5020.4201   -5556.1083   -1791.2111 
   24950    292.51314   -6229.1035   -5052.2938   -5497.1327    -1487.433 
   25000    303.92749   -6243.9978   -5021.2671   -5675.6467   -2188.0859 
   25050    317.55052   -6274.6057   -4997.0683   -5618.2806   -2077.1827 
   25100     303.8173   -6275.2025   -5052.9151   -5721.0481   -2234.0741 
   25150    300.09295   -6323.2648   -5115.9608   -5817.3574   -2345.2995 
   25200    309.24055   -6383.8491   -5139.7435   -6153.5717    -3389.995 
   25250     301.4849   -6344.0722   -5131.1683   -5929.4654   -2669.3112 
   25300    303.87646   -6319.3185   -5096.7932   -5581.1249   -1619.4873 
   25350    300.24137   -6242.7228   -5034.8218   -5456.6438   -1410.4703 
   25400    304.85685   -6179.1996     -4952.73    -5271.256   -1065.0734 
   25450    313.31701   -6150.7938   -4890.2882   -5111.4743   -739.59272 
   25500    302.93943   -6111.9825   -4893.2269    -4857.344     119.9839 
   25550    304.76596   -6140.8913   -4914.7874    -5332.254    -1395.907 
   25600     305.9824   -6157.8928    -4926.895   -5245.3073   -1064.6934 
   25650    310.02703   -6202.8236   -4955.5539   -5156.7432   -672.72805 
   25700    306.20358   -6228.5521   -4996.6645     -5406.26   -1369.5879 
   25750     297.5875   -6234.0222   -5036.7979   -5264.0666   -759.93105 
   25800    312.08666   -6323.4754   -5067.9196   -5754.1321   -2294.5276 
   25850    303.47901   -6330.2146   -5109.2882   -6045.4051   -3130.1471 
   25900    303.15299   -6313.7797   -5094.1649   -5963.4101   -2906.5442 
   25950    313.50924   -6318.2868   -5057.0078   -5588.5548   -1777.3637 
   26000    306.30466   -6274.8235   -5042.5292    -5623.083   -1941.2304 
   26050     309.6624   -6257.8084   -5012.0056   -5546.2519   -1786.3896 
   26100    304.89211   -6240.6533   -5014.0418   -5247.1087   -779.31873 
   26150    311.84071   -6261.6143    -5007.048   -5686.4683   -2271.8161 
   26200    299.38165    -6175.062   -4970.6197   -5190.6514    -735.7324 
   26250    307.11502   -6151.6629   -4916.1085   -5003.6008   -292.55313 
   26300    312.01006    -6130.025   -4874.7774   -5042.5016   -560.82911 
   26350     311.0927   -6134.1751   -4882.6181   -5202.5536   -1069.7865 
   26400    305.26762   -6172.2075   -4944.0853   -5285.9179   -1143.0051 
   26450    292.33474   -6185.5201   -5009.4282   -5205.4143   -655.32982 
   26500    297.86414   -6253.7044   -5055.3671   -5549.6628   -1652.8046 
   26550    301.39476   -6274.9529   -5062.4116   -5807.5293   -2491.4922 
   26600    299.13494   -6219.1393   -5015.6895   -5381.7415   -1223.9887 
   26650    321.69753   -6230.8379   -4936.6166     -5374.63   -1464.6103 
   26700     315.0854   -6182.1306   -4914.5105   -5235.4723   -1073.2181 
   26750      306.298    -6176.891   -4944.6235   -5320.4843   -1256.7867 
   26800    310.32868   -6219.2124   -4970.7291   -4888.6692    274.38821 
   26850    304.90721   -6255.1265   -5028.4543   -5759.3391   -2443.9009 
   26900    295.49684   -6280.6287   -5091.8153   -5389.7439   -996.20057 
   26950    305.00506    -6361.791   -5134.7252   -5935.0361   -2676.0451 
   27000    302.52568   -6364.9133   -5147.8223    -5997.616   -2841.5035 
   27050    310.85074   -6356.7417   -5106.1582   -6164.7932    -3539.818 
   27100    305.11391   -6317.7226   -5090.2188   -5750.6613   -2208.3589 
   27150    301.56405   -6337.8226   -5124.6002   -6076.2625    -3182.127 
   27200    306.36233   -6376.9774   -5144.4511   -6062.7663   -3070.6224 
   27250    308.41643   -6388.4257   -5147.6356   -6303.6388   -3865.3934 
   27300    291.58601   -6309.6264   -5136.5468   -5914.2174   -2600.3414 
   27350     307.3846   -6276.4909   -5039.8519   -5554.7129   -1721.5701 
   27400     311.1377    -6207.733   -4955.9949   -5203.4382    -827.3904 
   27450    306.26409   -6153.4218   -4921.2908    -4944.971    -79.18081 
   27500    302.48872   -6195.3573   -4978.4149   -5082.3781   -347.62735 
   27550    295.54513    -6252.201   -5063.1934   -5813.1225   -2507.5805 
   27600    297.75998   -6303.7578   -5105.8396   -5655.5217   -1838.0033 
   27650    303.77256   -6347.2953    -5125.188   -6296.2914   -3915.8849 
   27700    311.14625   -6379.0392   -5127.2667   -6463.6146   -4468.4221 
   27750    309.67651   -6367.0896     -5121.23   -6232.6275   -3716.2429 
   27800    304.82271   -6349.5669   -5123.2346   -6262.2849   -3808.7069 
   27850    297.50524   -6295.0787   -5098.1854   -5670.2911   -1912.9824 
   27900    312.70809   -6287.4185   -5029.3625   -5451.4843   -1411.4726 
   27950    318.91641   -6278.2948   -4995.2622   -5404.4323   -1368.1653 
   28000    320.58329   -6327.2583   -5037.5197   -5642.1615    -2021.775 
   28050    300.74274   -6325.3499   -5115.4318   -5823.1374   -2366.3952 
   28100    307.58246   -6439.4761   -5202.0411   -6335.0716   -3788.5782 
   28150     300.0215   -6526.6499   -5319.6334   -6435.2523   -3730.3583 
   28200    295.73611   -6559.8208   -5370.0449   -5918.2413   -1833.0354 
   28250    302.42402   -6522.1908   -5305.5087   -6559.4145   -4192.7558 
   28300    310.50908   -6440.8061   -5191.5971   -6483.9704    -4321.382 
   28350    318.11198   -6383.4472   -5103.6509   -6177.9156   -3592.0799 
   28400    307.19837   -6330.7712   -5094.8814   -5693.4612    -2001.505 
   28450    291.69412   -6315.2692   -5141.7546   -5704.2375   -1880.8061 
   28500    294.55786   -6318.7431   -5133.7074    -5794.152    -2208.366 
   28550    313.86595   -6306.2263   -5043.5122   -5602.3094    -1868.482 
   28600    304.39732   -6163.9799    -4939.359   -5182.3684   -812.56419 
   28650    322.65259   -6154.5924   -4856.5288   -4988.5193   -441.34407 
   28700    307.73082   -6137.5253   -4899.4934   -5254.2386   -1186.1814 
   28750    308.50375   -6227.0017   -4985.8603   -5372.2449   -1291.9762 
   28800    295.42658   -6258.0052   -5069.4746   -5654.4801   -1956.1161 
   28850    301.22399   -6301.1828   -5089.3286   -5825.9952   -2463.2338 
   28900    306.16552   -6302.2061   -5070.4717   -5462.4097   -1310.5455 
   28950    311.00485   -6294.6597   -5043.4561   -5378.6025   -1120.6479 
   29000    311.07631   -6289.6109   -5038.1198   -5726.0937   -2300.4175 
   29050    310.19284   -6321.3349    -5073.398   -5827.1376   -2520.3217 
   29100     303.6133   -6355.1956    -5133.729   -6248.7725   -3728.4342 
   29150    302.25196   -6391.4364   -5175.4465   -6571.2577    -4667.253 
   29200     303.3316   -6431.4163    -5211.083   -6656.8368   -4834.2487 
   29250    308.19444    -6466.885   -5226.9879   -6399.7042   -3921.2778 
   29300    305.38968   -6441.9376   -5213.3244   -6593.3851    -4614.587 
   29350    314.17918   -6429.9693   -5165.9951   -6622.5436   -4870.3438 
   29400    308.16279   -6390.6956   -5150.9259   -6184.7297   -3456.7882 
   29450    300.86806   -6381.3116   -5170.8893   -6134.5156   -3222.1319 
   29500    317.44152   -6446.6134   -5169.5145   -6412.1433   -4155.0484 
   29550    297.56405   -6423.3032   -5226.1732   -6199.7549   -3255.4202 
   29600    293.73258   -6452.0828   -5270.3672   -6302.0351   -3449.6464 
   29650    301.35731   -6474.7442   -5262.3536   -6572.6826   -4381.4214 
   29700    306.81025   -6474.1642   -5239.8359   -6830.1899   -5317.7569 
   29750    300.10803   -6453.2936    -5245.929   -6366.0124   -3745.2865 
   29800    310.70811   -6484.3196   -5234.3097   -6525.0691    -4315.985 
   29850    309.69516   -6518.8349   -5272.9003   -6550.1198   -4270.7112 
   29900    295.84516   -6521.7302   -5331.5156   -6831.4759   -5015.5025 
   29950    300.29954    -6537.971   -5329.8359   -6620.7113   -4316.3731 
   30000    308.02368   -6507.0713   -5267.8613   -6552.8309   -4296.6259 
   30050    309.57471   -6459.9932   -5214.5432   -6316.0444   -3683.1521 
   30100    306.04008    -6409.745   -5178.5152   -6437.9895   -4211.3755 
   30150    314.47006   -6421.3824   -5156.2379   -6214.9608   -3540.1116 
   30200    324.09872   -6516.3303   -5212.4488   -6728.3823   -5068.9129 
   30250    300.96413   -6541.6785   -5330.8698   -6357.3628   -3432.3429 
   30300     288.3504   -6558.1033   -5398.0409   -5955.2328   -1863.1142 
   30350    295.74173   -6531.1459   -5341.3474   -6437.5241   -3665.3482 
   30400    311.57123   -6474.7855   -5221.3033   -6419.6368   -4006.9359 
   30450    315.90316    -6410.266    -5139.356   -6003.0735   -2888.0611 
   30500    311.82808   -6377.5863   -5123.0708   -6227.8582   -3694.1403 
   30550    310.60518   -6407.4492   -5157.8536   -6391.0661   -4123.5627 
   30600    305.70325   -6453.4708   -5223.5961     -6714.85   -4986.3903 
   30650    303.85574   -6493.0484   -5270.6064   -6702.1655   -4786.7853 
   30700    304.82839   -6522.2378   -5295.8827   -6805.1637   -5046.6683 
   30750    296.24463   -6488.7238   -5296.9021   -6424.8324   -3771.5246 
   30800    303.04404   -6479.0431   -5259.8666   -6309.7544   -3510.5693 
   30850    307.84074   -6444.2574   -5205.7833   -6088.3685   -2951.1499 
   30900    309.92714   -6424.1503   -5177.2824   -6170.2364   -3320.1967 
   30950    309.14817   -6443.3159   -5199.5819   -6232.2782   -3453.0854 
   31000     304.8604   -6462.7729   -5236.2891   -6348.6568   -3719.4869 
   31050    290.71791    -6442.409   -5272.8218   -6290.0081   -3401.2236 
   31100    310.84258   -6534.2328    -5283.682   -6562.5288   -4276.1525 
   31150    308.64508   -6524.2632   -5282.5532   -6776.5797   -4995.6611 
   31200    314.17301   -6536.2418   -5272.2924    -6530.387   -4206.7624 
   31250      289.616   -6480.3968   -5315.2427   -6628.0092   -4389.5718 
   31300    307.59384   -6529.9312   -5292.4504   -6923.7262   -5454.5891 
   31350    309.61705   -6501.7393   -5256.1189   -6292.2729    -3464.647 
   31400    303.36814   -6439.4321   -5218.9517   -6164.2021   -3160.6874 
   31450    314.44929   -6420.7204   -5155.6595   -5781.0145    -2091.035 
   31500    308.58072   -6382.3682   -5140.9171   -5703.5331   -1881.2508 
   31550     302.3307   -6394.5068   -5178.2001   -5811.3983   -2117.2604 
   31600    300.85215   -6449.2773   -5238.9191   -6223.8328    -3293.312 
   31650    303.67185   -6502.3016   -5280.5994   -6620.9791   -4481.9035 
   31700    295.64967   -6479.5753   -5290.1471   -6531.4184   -4150.5093 
   31750    320.13259   -6525.1013   -5237.1758   -6618.3704   -4618.3784 
   31800    309.77771   -6476.2308    -5229.964   -6578.8694   -4510.4113 
   31850    302.09691   -6443.0239   -5227.6578    -6122.502   -2992.1412 
   31900    303.13124   -6428.5869   -5209.0596   -5963.5804   -2522.9338 
   31950    299.70832   -6390.6217   -5184.8652   -5641.0776    -1525.463 
   32000    298.91025   -6367.7118    -5165.166    -5912.042   -2497.3714 
   32050    306.69628   -6357.1319   -5123.2621   -6060.7819    -3134.838 
   32100    315.85183   -6344.3279   -5073.6244   -6089.8251   -3397.9279 
   32150    309.12611   -6292.5093   -5048.8641   -5316.8598   -896.11239 
   32200    298.00694   -6273.1097    -5074.198   -5432.3132   -1197.4503 
   32250    313.74475   -6338.6335    -5076.407   -6100.3345   -3423.7645 
   32300    306.71458   -6339.4349   -5105.4915   -6031.1671    -3095.234 
   32350    306.00151   -6362.8246   -5131.7499    -6065.485    -3122.183 
   32400    304.48627   -6379.1194   -5154.1407   -5824.7977   -2242.5139 
   32450    304.17619   -6366.4271   -5142.6958   -5941.4063   -2670.6933 
   32500    308.38566   -6366.3755   -5125.7091   -5911.6868   -2628.1179 
   32550    312.28419   -6366.6913   -5110.3408   -5997.2448   -2965.5913 
   32600    304.91027   -6301.0133   -5074.3288   -5488.6692   -1385.4535 
   32650    315.53657   -6270.7592    -5001.324   -5463.3346   -1544.8512 
   32700     307.2468   -6207.0123   -4970.9277   -5185.2971   -716.79908 
   32750    311.30445   -6230.1731   -4977.7642   -5228.2345    -837.5116 
   32800    304.12658    -6242.265   -5018.7334   -5390.8033   -1244.1113 
   32850      305.661   -6277.1258    -5047.421   -5464.5325   -1394.7192 
   32900     296.5982   -6253.9631   -5060.7189   -5366.2915   -1021.7603 
   32950    296.84321   -6227.1063   -5032.8764   -5293.2219   -870.53206 
   33000    307.62835   -6200.3165   -4962.6969   -5246.5349   -949.08493 
   33050    310.27671   -6147.8203   -4899.5461   -5159.8962    -870.5472 
   33100    312.91159   -6136.6916    -4877.817   -5236.3572   -1198.8712 
   33150    304.51734    -6140.953   -4915.8493   -4994.3139   -262.36666 
   33200    303.71069   -6224.1999   -5002.3415   -5062.5068   -201.17836 
   33250    295.26617   -6285.7006   -5097.8153    -5832.846   -2457.7639 
   33300    305.06543   -6356.2607    -5128.952   -5959.6461    -2777.639 
   33350    303.33918   -6348.6738     -5128.31   -6363.9525    -4131.688 
   33400    298.85826   -6332.9153   -5130.5786   -5998.2724   -2901.3567 
   33450    305.06105    -6334.188    -5106.897   -5943.0316   -2795.8306 
   33500     324.2081   -6395.4769   -5091.1554   -6270.2343    -3942.553 
   33550     294.0493   -6335.1635   -5152.1738   -6047.4871   -2993.7096 
   33600    307.51361   -6433.1134   -5195.9554   -6271.6111   -3596.7308 
   33650    303.29085   -6483.0524    -5262.883   -6622.2035   -4545.2369 
   33700    304.58791   -6534.1786    -5308.791   -7074.0627   -5902.6391 
   33750    292.21346   -6525.3088   -5349.7048    -7138.598   -5981.6236 
   33800    303.25081   -6548.6206   -5328.6123    -6788.624   -4881.9239 
   33850    316.04761   -6559.8603   -5288.3692   -6408.6836   -3746.0587 
   33900      308.369   -6519.4059   -5278.8066   -6704.1544   -4766.0162 
   33950    308.21929    -6500.496    -5260.499   -6631.6334   -4584.7398 
   34000    314.74418   -6505.9243    -5239.677   -6769.0083   -5113.7117 
   34050    309.35255   -6493.0715   -5248.5152   -6608.4719   -4547.3641 
   34100    291.59732   -6425.1601    -5252.035   -6178.4573    -3097.731 
   34150    318.02481   -6454.1947   -5174.7491   -6217.8493   -3487.8732 
   34200    311.82372   -6395.1833   -5140.6853   -6242.5388   -3684.3297 
   34250    300.46662   -6369.7486   -5160.9413   -6193.9452   -3454.1137 
   34300    299.50419   -6402.3027   -5197.3674   -6398.5538   -4016.4749 
   34350    308.70676   -6449.9293   -5207.9711   -6387.6711   -3944.6297 
   34400    312.02345   -6476.5552   -5221.2537   -6430.9024   -4044.7712 
   34450    296.35171   -6469.4554   -5277.2028   -6591.9622   -4396.2352 
   34500    297.48681   -6518.0418   -5321.2226   -7128.1171   -6041.8156 
   34550    293.35698   -6513.2903   -5333.0858   -6967.4533   -5464.9269 
   34600    301.79218   -6505.8195   -5291.6794    -6668.638   -4604.2146 
   34650    308.58362   -6477.6732   -5236.2104   -6487.0311   -4182.4401 
   34700    307.66158   -6434.1562   -5196.4029   -6322.4806   -3765.3297 
   34750    297.00706   -6347.3493   -5152.4602   -6247.3647   -3661.0945 
   34800    324.51697   -6369.4279   -5063.8637   -6121.6286   -3536.9086 
   34850    293.58323   -6214.8864   -5033.7717   -5168.2412   -449.63335 
   34900    301.40841   -6234.1842    -5021.588   -5384.8809   -1214.7628 
   34950    301.78996   -6196.4345   -4982.3033   -5292.2988   -1036.5493 
   35000     315.2088   -6210.7277   -4942.6112   -5395.7339   -1515.1323 
   35050    310.63996   -6200.5164   -4950.7807   -5221.1988   -904.21206 
   35100    301.39816    -6208.275   -4995.7201   -5305.5383   -1035.9568 
   35150    300.74888   -6265.7735   -5055.8307   -5477.0618   -1408.4946 
   35200    285.48833   -6228.8368   -5080.2887   -5295.3589   -719.14251 
   35250    300.88749   -6227.9346   -5017.4342   -5208.0639   -637.41955 
   35300    314.26292   -6180.8337   -4916.5225   -5146.1721   -767.89225 
   35350    317.97198   -6173.2919   -4894.0589   -4999.8047   -353.58843 
   35400    305.01909   -6159.8742   -4932.7519   -5398.9657   -1558.9055 
   35450    301.25954   -6187.1747   -4975.1775   -5085.2584    -368.0839 
   35500    306.51466   -6236.8922   -5003.7531   -5683.4156    -2272.626 
   35550      303.332   -6251.9491   -5031.6141   -5279.7427   -829.68161 
   35600    314.63885   -6337.3023   -5071.4788   -6023.4946   -3183.3092 
   35650    296.94262   -6291.8669   -5097.2371    -5830.358   -2451.3779 
   35700    301.56041   -6300.0829   -5086.8752   -5602.4359   -1723.9094 
   35750    304.40321   -6313.7075   -5089.0629   -5542.9846   -1517.8037 
   35800    293.96058   -6298.8374   -5116.2046   -5788.5152   -2248.0433 
   35850    310.52881   -6340.5507   -5091.2622   -6233.6772   -3819.9575 
   35900    313.24947    -6308.362   -5048.1281   -5772.2129   -2421.1634 
   35950    293.27704   -6198.8573   -5018.9744    -5189.821   -571.26928 
   36000    305.03897   -6214.8329   -4987.6306   -5281.4186   -982.35531 
   36050    302.53549   -6211.2899   -4994.1594   -5067.1977   -244.22228 
   36100    300.71548   -6234.3592   -5024.5508   -5305.0314   -937.85895 
   36150    307.36242   -6296.0484   -5059.4987   -5578.3705    -1734.981 
   36200    296.74478   -6279.2577   -5085.4238   -5892.6764   -2699.2563 
   36250    304.88693   -6308.3711   -5081.7805   -5764.2467   -2282.0007 
   36300    302.48154   -6315.6056   -5098.6922   -5666.5754   -1898.8632 
   36350    310.55554   -6391.4655   -5142.0695   -6166.2756   -3424.6959 
   36400     299.9611   -6409.5117   -5202.7382   -6311.8912   -3708.7377 
   36450    298.21778   -6376.5164   -5176.7564   -6328.6085   -3851.5132 
   36500    303.90322   -6320.7829   -5098.1499   -5915.3721   -2732.5922 
   36550     308.6663   -6268.4273   -5026.6319   -5353.4515   -1092.8051 
   36600     304.5058   -6199.7216   -4974.6643   -5100.5942   -421.07886 
   36650    312.88496    -6182.784   -4924.0166   -5116.4506   -643.45277 
   36700     314.1856   -6183.3993   -4919.3993   -5249.6999    -1104.445 
   36750    303.27122   -6179.8034    -4959.713   -5842.7274   -2952.5851 
   36800    301.05378   -6184.0616   -4972.8922   -5525.2539   -1846.9632 
   36850    303.75338   -6188.2634   -4966.2331   -5503.9257    -1797.913 
   36900    310.96874   -6191.4076   -4940.3493   -5512.3879   -1912.7581 
   36950    318.30041   -6234.2065   -4953.6522   -5610.1294   -2195.1003 
   37000    299.99807   -6230.9356   -5024.0133    -5576.723   -1848.1267 
   37050    301.29211   -6297.4941   -5085.3658   -5733.2572   -2166.3913 
   37100    298.68929   -6305.9238   -5104.2669   -5633.9618   -1771.1706 
   37150    289.66256   -6273.2308   -5107.8893   -5646.5476   -1801.1423 
   37200    306.74351   -6309.4707   -5075.4109   -5605.7682   -1773.3857 
   37250    302.85915   -6252.4391   -5034.0065   -5679.8698   -2159.6099 
   37300    316.69733   -6236.8001   -4962.6951    -5284.075   -1074.6163 
   37350    309.64161   -6206.8622   -4961.1431   -5332.0924   -1240.3644 
   37400    302.91579   -6235.5842   -5016.9237   -5493.2057    -1592.571 
   37450    290.23641   -6227.3866   -5059.7365   -5511.8317   -1511.6965 
   37500    309.79357   -6294.8592   -5048.5287    -5585.881   -1796.7752 
   37550    298.01133   -6270.9389   -5072.0095    -5498.426   -1425.8331 
   37600    293.45208   -6274.2252   -5093.6382   -5509.5376   -1390.6664 
   37650    315.82654   -6336.7994   -5066.1977    -6137.889   -3583.4748 
   37700    309.21799   -6342.4873   -5098.4724   -6140.5008   -3484.2893 
   37750    295.04721   -6352.8759   -5165.8714   -6242.6519    -3600.492 
   37800    303.44226   -6388.2593   -5167.4807   -6599.3338   -4787.7683 
   37850    313.64044   -6391.1041   -5129.2972   -6417.8045   -4308.4547 
   37900    302.11336   -6339.9589   -5124.5267   -5802.0261   -2265.3931 
   37950    309.33891   -6414.2277   -5169.7264   -6343.3066   -3924.1666 
   38000    294.27381   -6431.5446   -5247.6517   -6191.5237   -3156.0783 
   38050    286.06484   -6411.2446   -5260.3772   -6224.7792   -3224.7257 
   38100    312.92891   -6449.2448   -5190.3005   -6405.5352    -4063.449 
   38150    311.47191    -6400.661   -5147.5784   -6156.4603   -3373.4556 
   38200    309.01567   -6399.7659    -5156.565   -6464.0392   -4371.8757 
   38250    304.07686   -6402.8116     -5179.48   -6712.4774   -5125.9702 
   38300    299.65972   -6378.5676   -5173.0066   -6157.5829   -3292.1835 
   38350     304.0153   -6379.9924   -5156.9085   -6263.9033   -3701.5213 
   38400    314.52042   -6400.4501    -5135.103   -6522.8665   -4640.3434 
   38450     311.7748   -6408.1361   -5153.8349   -6370.4459    -4068.051 
   38500    313.19944   -6457.7402   -5197.7076   -6574.6118   -4604.0326 
   38550    291.80234   -6419.9078   -5245.9578   -6365.2368   -3742.5966 
   38600    304.91538   -6442.2719   -5215.5668   -6602.3006   -4636.9003 
   38650     316.3185   -6456.6263   -5184.0454   -6409.5518   -4097.7952 
   38700    304.09491   -6430.8206   -5207.4164   -6286.8138   -3609.2422 
   38750    303.24886   -6410.2655    -5190.265   -6411.5033   -4083.5236 
   38800    313.45911      -6381.2   -5120.1227   -6062.9299    -3152.518 
   38850    318.38318   -6326.8521   -5045.9647   -5750.1997   -2354.7905 
   38900    308.42998   -6272.5413   -5031.6966   -5260.4593   -764.92681 
   38950    299.18587   -6228.9822   -5025.3276   -5072.2545    -156.9123 
   39000    308.64775   -6246.6392   -5004.9185   -5554.0806   -1836.2645 
   39050    298.18337   -6198.0029   -4998.3814   -5438.7171   -1472.3752 
   39100    313.93661   -6219.5159   -4956.5176   -5194.8139   -796.80486 
   39150    301.27579   -6189.0958   -4977.0332   -4940.9079    120.79409 
   39200    295.31837    -6210.083   -5021.9877   -5317.8179   -989.18438 
   39250    314.73892   -6266.3561     -5000.13   -5668.7804   -2235.8044 
   39300    309.08686   -6200.9078   -4957.4205   -5171.0061   -714.17834 
   39350    317.76249   -6203.8055   -4925.4152   -5420.3854   -1655.0598 
   39400    305.80939   -6182.5841   -4952.2824   -5066.8723   -383.16083 
   39450    301.84108   -6219.9402   -5005.6034   -5620.4239   -2055.8101 
   39500    284.63639   -6190.0608   -5044.9402   -5326.5648   -941.68418 
   39550    313.24808   -6269.7159   -5009.4876   -5336.1212   -1092.1835 
   39600    309.29694   -6264.2888   -5019.9563   -5496.5078   -1593.4721 
   39650    302.98468    -6277.903   -5058.9654   -5786.5882   -2432.9938 
   39700    311.00864   -6351.5792   -5100.3604   -5925.5257   -2759.1522 
   39750    296.49536   -6341.7411   -5148.9106   -6095.3386   -3164.6248 
   39800    315.12261   -6446.9234   -5179.1536   -6789.9854   -5386.2296 
   39850    303.18752   -6479.8211   -5260.0674   -6834.2019   -5263.5228 
   39900    304.14438   -6552.7295   -5329.1262   -7181.2109   -6192.9203 
   39950    291.43911   -6539.7383   -5367.2497   -7212.0073   -6168.4205 
   40000    309.07717   -6556.5459   -5313.0976   -6809.8109   -5004.6452 
   40050     308.1289   -6495.0027   -5255.3693   -6865.0568   -5382.4033 
   40100    318.76022   -6474.1994   -5191.7952   -6322.8403   -3781.9398 
   40150      316.443   -6460.3057   -5187.2239    -6324.696   -3803.4297 
   40200    306.57286   -6456.9348   -5223.5615   -6437.4672   -4059.0051 
   40250    306.26175   -6515.1054   -5282.9838   -7014.5313   -5789.8736 
   40300    299.25243     -6542.66   -5338.7375   -7084.2291    -5836.499 
   40350    302.84673    -6556.942   -5338.5594   -7067.2692   -5780.3849 
   40400    309.77888   -6557.9777   -5311.7063    -6803.248   -4987.3525 
   40450     311.1186   -6554.0005   -5302.3393   -6996.2945    -5664.174 
   40500    303.17486    -6550.452   -5330.7493   -6828.4906   -5008.0824 
   40550    297.97045   -6555.4518   -5356.6868   -6699.5605   -4490.2427 
   40600    300.77778   -6558.4555   -5348.3964   -6882.0219   -5128.0704 
   40650      304.266   -6531.6734   -5307.5809   -6658.3326   -4516.5849 
   40700    309.13788   -6488.6271   -5244.9345   -6638.5176   -4659.8028 
   40750    315.61418    -6485.525   -5215.7776   -6684.8702   -4912.2882 
   40800    306.16822   -6466.8438   -5235.0984   -6359.1835   -3758.6669 
   40850    305.48307   -6497.3344   -5268.3455   -6860.9303    -5325.216 
   40900    304.10106   -6536.5015   -5313.0725   -6840.0938   -5105.9877 
   40950    300.80513   -6540.1678   -5329.9987   -6936.6877   -5372.3769 
   41000    307.33634   -6546.3872   -5309.9424   -6638.2483   -4441.5317 
   41050    301.77133   -6541.4161   -5327.3599   -6862.4328   -5132.9104 
   41100    305.48112   -6583.3632   -5354.3821   -6497.1131   -3821.0143 
   41150    296.62927   -6558.6974   -5365.3282   -6941.4055   -5270.0189 
   41200    299.09963   -6540.4797    -5337.172   -6730.0429   -4657.4213 
   41250    307.86058   -6513.1636   -5274.6097   -6430.1194   -3863.7433 
   41300    313.39104   -6495.3108   -5234.5073   -6245.9489   -3382.0147 
   41350    315.61569   -6498.9131   -5229.1597   -6570.2212   -4484.1836 
   41400    314.20527   -6520.8253   -5256.7461   -6339.9834    -3622.082 
   41450    299.71817   -6527.7934   -5321.9973   -6900.7478   -5278.9575 
   41500    302.11165   -6552.4058   -5336.9804   -6955.2509   -5411.1028 
   41550    305.99827    -6568.725   -5337.6633   -6812.6963   -4932.1512 
   41600    309.26849   -6595.0391    -5350.821   -6127.0112   -2595.3912 
   41650    288.85017   -6532.5067   -5370.4336   -6834.5818   -4895.7551 
   41700     306.8633   -6547.8605   -5313.3188   -6652.6477   -4478.3898 
   41750    310.18401    -6507.524   -5259.6228   -6377.4533   -3737.7533 
   41800    312.80587   -6483.0889   -5224.6397   -6381.7687   -3869.1578 
   41850    312.90025   -6494.7766   -5235.9476   -6149.7012   -3055.3695 
   41900    295.11272   -6461.1597   -5273.8918   -6390.5115   -3733.7046 
   41950     302.3617   -6495.1709   -5278.7395   -6526.1056   -4170.8886 
   42000    307.53114   -6517.8783   -5280.6497   -6682.7726   -4688.3577 
   42050    296.39855   -6486.5942   -5294.1532   -6460.7375   -3900.7741 
   42100    297.64236   -6451.3584   -5253.9134   -6108.0115   -2855.8963 
   42150    304.50346   -6402.8218   -5177.7739   -6263.0164   -3628.7868 
   42200    304.57312   -6335.7325   -5110.4044   -5706.4881   -1993.1587 
   42250    318.26237   -6376.7933    -5096.392   -5659.1952   -1881.8769 
   42300    303.90084   -6377.2327   -5154.6092   -6107.4019   -3185.9068 
   42350     308.6676   -6460.1782   -5218.3776   -6264.9815   -3499.5888 
   42400    297.61205   -6496.3416   -5299.0186   -6676.7113   -4606.6692 
   42450     306.5463   -6575.9187   -5342.6523   -7058.3668   -5736.9317 
   42500    296.27028   -6572.4394   -5380.5145   -6998.8287    -5411.249 
   42550    290.67569   -6539.3942   -5369.9768   -7163.1679   -5995.9946 
   42600    309.22261   -6528.1201   -5284.0867   -6607.2188   -4424.2318 
   42650     303.2806   -6437.8585   -5217.7303   -6060.8406   -2819.1556 
   42700    308.33604   -6417.8498   -5177.3831   -6059.9027   -2950.9309 
   42750    312.23089   -6411.6605   -5155.5244   -6168.7085   -3387.8412 
   42800    307.75576   -6394.5096   -5156.3774   -6063.9638   -3034.7481 
   42850    313.96371   -6433.3516   -5170.2442   -6240.9519   -3580.1861 
   42900    287.54251   -6408.5739   -5251.7616    -6178.986   -3100.4127 
   42950    290.23384   -6464.1697     -5296.53   -6292.0003   -3328.6105 
   43000     297.4164    -6495.963   -5299.4271   -6436.5536   -3802.2744 
   43050    301.10824   -6508.6319   -5297.2434    -6787.459   -4982.9183 
   43100    302.30833   -6501.3655   -5285.1489   -6705.0183   -4747.6978 
   43150    306.38578   -6462.8352   -5230.2145   -6076.1881   -2828.7297 
   43200     305.1232   -6416.6738   -5189.1327   -6169.6584   -3278.6395 
   43250    301.17473   -6371.0632   -5159.4072   -5956.4245    -2665.032 
   43300    323.42785   -6442.2568   -5141.0742   -6179.1795   -3471.1713 
   43350    300.75108   -6409.0143   -5199.0626   -6574.8823   -4600.4062 
   43400    305.66464   -6459.9765   -5230.2571   -6001.5532   -2579.0267 
   43450    297.68649   -6470.9849   -5273.3624   -6493.9881   -4081.4755 
   43500    300.41198   -6471.0474     -5262.46    -6275.034   -3385.8012 
   43550    305.97155   -6438.0595   -5207.1054   -5909.4699    -2348.536 
   43600    305.63177   -6385.3001   -5155.7129   -5689.0509   -1783.3523 
   43650    306.58443   -6336.1624   -5102.7426   -5620.1081   -1729.9443 
   43700    306.37011   -6288.9969   -5056.4393   -5683.9823    -2098.351 
   43750     303.7685   -6260.4166   -5038.3256   -5330.8446    -978.1126 
   43800    309.01528   -6280.9566   -5037.7573   -6001.4747   -3222.4366 
   43850    316.76965   -6322.8665   -5048.4705   -5717.2015   -2236.0736 
   43900    301.28755   -6310.7902   -5098.6802   -5897.3096   -2670.4223 
   43950     310.7732   -6401.8458   -5151.5741   -6071.8005   -3077.0131 
   44000    299.77963   -6402.4137   -5196.3702   -6520.1164    -4426.285 
   44050    303.19181   -6398.2021   -5178.4311   -6421.8634   -4157.7351 
   44100    304.10347   -6357.2173   -5133.7787   -5719.9878   -1960.1407 
   44150    309.12554   -6321.6572   -5078.0143   -5857.3213    -2605.813 
   44200    301.15537    -6250.126   -5038.5478   -5454.6792    -1391.442 
   44250    315.07286   -6251.3612   -4983.7916   -5436.0151   -1512.1255 
   44300    318.59345   -6279.0738   -4997.3405   -5628.3626   -2109.9844 
   44350    302.83518   -6293.7555   -5075.4193   -5879.7673   -2689.5441 
   44400    306.44961   -6355.2704    -5122.393   -5738.8665   -2061.3374 
   44450    301.23603   -6351.0493   -5139.1466   -6022.2828   -2952.9924 
   44500    308.22689   -6355.4557   -5115.4281   -5870.1105   -2523.4742 
   44550    313.50974   -6333.5403   -5072.2593   -5877.1369   -2691.3148 
   44600    305.12135   -6291.5913   -5064.0576   -5613.8113   -1838.2423 
   44650    307.20377   -6311.8628   -5075.9513    -5650.703   -1921.8298 
   44700    297.40362   -6267.7786   -5071.2941   -5505.9489   -1453.3797 
   44750    308.51392   -6267.9621   -5026.7798   -5265.4825   -798.16389 
   44800    306.26957   -6252.4618   -5020.3087   -5112.5813   -308.53688 
   44850    295.79804   -6236.7116   -5046.6865   -5338.6326   -976.19678 
   44900      310.922    -6301.243   -5050.3727   -5455.6986   -1355.3112 
   44950    302.28244   -6306.6888   -5090.5763   -5854.5598    -2554.575 
   45000    307.52299   -6388.1463   -5150.9506   -6031.3634   -2943.8861 
   45050    301.09448   -6402.9724   -5191.6392   -6359.7342   -3905.8253 
   45100    309.39972   -6434.3652   -5189.6192   -6164.5973   -3260.0895 
   45150     296.4685   -6402.9802   -5210.2578   -6115.5309   -3027.0129 
   45200     309.4207   -6433.5128   -5188.6824   -6322.8807   -3792.4833 
   45250    295.49886   -6369.8598   -5181.0384   -5612.5942   -1443.0177 
   45300    295.94907   -6368.5526   -5177.9199   -5873.0206   -2324.2477 
   45350    304.02096   -6367.4697    -5144.363   -5868.5453   -2421.4893 
   45400     313.6939   -6351.6936   -5089.6717    -5809.227   -2406.0178 
   45450    297.09626   -6276.9664   -5081.7184   -5782.5709     -2343.48 
   45500    302.60103   -6301.1841   -5083.7899   -5583.4952   -1670.8929 
   45550    312.51633   -6322.3522   -5065.0677    -6032.376   -3234.4435 
   45600    314.91142   -6327.0579   -5060.1378   -5980.6666   -3078.0243 
   45650    307.03545   -6291.8267   -5056.5924   -5708.9256   -2181.2436 
   45700    297.50262   -6187.3302   -4990.4474   -5068.3511   -260.49092 
   45750    319.57458   -6191.0642   -4905.3837   -5166.8616   -874.31845 
   45800    312.94448   -6158.1565   -4899.1496   -5334.2428   -1454.8458 
   45850    315.46657   -6189.3189   -4920.1653   -5252.7559    -1112.102 
   45900    292.49203   -6141.7316   -4965.0069      -5151.9   -624.92514 
   45950    298.69754   -6183.4759   -4981.7859   -5198.6822   -725.24866 
   46000    316.60105   -6270.2954   -4996.5777   -5165.6254   -565.25446 
   46050    303.85216   -6284.9757   -5062.5481   -5404.0418   -1141.8718 
   46100    308.29116   -6352.4031    -5112.117   -6116.1914   -3357.3805 
   46150    302.18244   -6366.2555   -5150.5454   -6173.0541   -3419.0203 
   46200    297.70361   -6372.6675   -5174.9762   -5840.3115   -2224.7194 
   46250    294.51578   -6356.9188   -5172.0523   -5989.4376   -2733.1375 
   46300    305.58323   -6338.3449    -5108.953    -5892.025   -2618.4022 
   46350     305.4748   -6283.1128   -5054.1572   -5140.6114   -289.08199 
   46400    301.52633   -6236.9965   -5023.9259   -5253.1615   -766.50789 
   46450    306.76452   -6212.8633    -4978.719   -5301.2944   -1078.6139 
   46500    315.02007   -6195.0075   -4927.6502   -5003.0253   -252.03594 
   46550    308.85526   -6157.5673   -4915.0117   -5043.2029   -428.64034 
   46600    304.46676   -6167.7181   -4942.8179   -5308.8134   -1223.7998 
   46650    301.93871   -6179.3333   -4964.6037   -5460.8838     -1659.44 
   46700     308.6504   -6193.4257   -4951.6943   -5341.0044   -1301.7583 
   46750    312.65494   -6221.5078   -4963.6657    -5395.886   -1445.2393 
   46800    304.34449     -6228.62   -5004.2117   -5699.0187   -2323.2655 
   46850    300.98705   -6236.0845   -5025.1835   -5480.6555   -1522.9874 
   46900    309.06704   -6255.5601   -5012.1525   -5752.5631   -2475.7528 
   46950    306.51478   -6259.1495   -5026.0099   -5491.6907   -1557.1231 
   47000    301.67154   -6248.1245   -5034.4697   -5542.4091   -1698.4259 
   47050    308.37288   -6273.5656   -5032.9507   -5581.5967    -1834.539 
   47100    304.48748   -6256.2204   -5031.2369   -5665.7466   -2121.6463 
   47150    308.27361   -6279.8631   -5039.6476   -5659.5249   -2072.7191 
   47200    283.10357   -6213.4684   -5074.5144   -5493.4141   -1400.6986 
   47250    311.26999   -6303.1648   -5050.8945   -6035.4979   -3292.2741 
   47300    320.34019   -6331.0998   -5042.3392   -6013.7608   -3248.1975 
   47350    313.58764   -6365.6089   -5104.0145   -5913.2621    -2705.927 
   47400    315.05857   -6430.1917   -5162.6796   -6368.9156   -4033.3597 
   47450    308.15546   -6476.0269   -5236.2867   -6408.9254   -3921.0187 
   47500    299.94936   -6539.7441   -5333.0179   -7083.4923   -5853.1606 
   47550     299.1329     -6592.59   -5389.1484   -6769.9883   -4617.1927 
   47600    296.58798   -6584.5329   -5391.3298   -7057.4428   -5571.0762 
   47650    304.09933   -6555.9737   -5332.5517   -6810.2094   -4940.9277 
   47700     309.7472   -6534.3415   -5288.1976   -6789.4107   -5019.6916 
   47750    313.84649   -6544.2698    -5281.634   -6799.5488   -5075.5377 
   47800     303.0975   -6525.5131   -5306.1216   -6488.8897    -3954.889 
   47850    307.56169   -6555.8694    -5318.518   -7004.7617   -5638.3886 
   47900    314.90835   -6582.2079   -5315.3001   -7199.6872    -6300.932 
   47950    299.49443   -6553.4705   -5348.5745   -6862.6352   -5062.6507 
   48000    300.38468   -6550.6111   -5342.1335   -6877.1253   -5132.6392 
   48050    311.38308   -6578.0687   -5325.3435   -7135.1519    -6051.559 
   48100    294.70621   -6536.4054   -5350.7729   -6796.4208   -4833.8947 
   48150     310.5938   -6604.5763   -5355.0264   -6450.2475   -3662.1528 
   48200    300.53847   -6596.9098   -5387.8135   -6937.5796   -5182.0407 
   48250    303.60545   -6607.1768   -5385.7417   -6591.2475   -4030.9181 
   48300    302.72763    -6569.904   -5352.0005   -7107.1719   -5868.8659 
   48350    304.33068   -6513.5568    -5289.204   -6643.5353   -4528.5541 
   48400    309.45076   -6480.6306   -5235.6793   -6363.3804    -3770.758 
   48450    308.07828   -6477.8687    -5238.439   -6181.5618   -3153.5733 
   48500    302.46713   -6501.0593   -5284.2038   -6553.2318   -4243.3206 
   48550    306.54271   -6565.1814   -5331.9294   -6947.4159   -5401.7936 
   48600    300.48312   -6587.3103   -5378.4367   -7412.6047   -6801.7631 
   48650    303.11961   -6601.2532   -5381.7727   -6803.6441   -4754.3919 
   48700    303.31129   -6586.6348   -5366.3832   -7242.1285    -6272.036 
   48750    308.88119   -6550.6732   -5308.0133   -6745.0787   -4805.1969 
   48800    306.45432   -6492.8834    -5259.987   -6623.5293   -4559.3534 
   48850    312.55976    -6447.714   -5190.2548   -6049.8063   -2874.1309 
   48900    312.25795   -6429.0013   -5172.7563   -6424.3693   -4185.0891 
   48950     301.5292   -6407.9277   -5194.8456   -6397.3804   -4020.9838 
   49000    305.08253   -6428.8821   -5201.5046   -6449.8043   -4174.0105 
   49050    318.87296   -6496.1879   -5213.3301   -6623.1622   -4714.1353 
   49100    296.88096     -6461.77   -5267.3882   -6350.1387   -3620.4541 
   49150    294.97039   -6473.3469   -5286.6515   -6253.7768   -3233.8317 
   49200    303.66378    -6466.235   -5244.5653   -6298.3951   -3523.7507 
   49250    320.90355   -6480.4511    -5189.424   -6401.9677    -4054.451 
   49300    301.51209   -6409.7747   -5196.7615    -6334.137    -3803.107 
   49350    308.21036   -6436.6158   -5196.6547   -6488.5219   -4319.6895 
   49400    305.19148   -6429.7755   -5201.9597   -6306.9575   -3694.8438 
   49450    307.35655   -6436.6153   -5200.0892    -6653.481   -4859.7884 
   49500    300.69267   -6411.3551   -5201.6384   -5873.4535   -2246.3861 
   49550    307.84879   -6395.9922   -5157.4857   -6128.5236   -3246.9142 
   49600    311.86967   -6364.1509    -5109.468   -6059.5924   -3176.9846 
   49650    310.09136   -6320.9281   -5073.3995   -5807.3718   -2454.2247 
   49700    317.51784   -6304.3736   -5026.9676    -5951.686   -3092.0335 
   49750    304.47265   -6207.0943   -4982.1704   -5344.1842    -1210.486 
   49800    315.13929   -6223.9076   -4956.0707   -5315.2454   -1200.9928 
   49850    300.64439   -6173.5974   -4964.0749   -5293.2403    -1100.649 
   49900    296.31382   -6162.2466   -4970.1465   -5261.0199   -972.60987 
   49950    311.55186   -6200.9041   -4947.4998     -5371.52   -1417.8203 
  STMD DIG: istep= 50000  TSC1= 50000 Tlow= 0.949142
   50000    309.66193    -6201.017   -4955.2161   -5485.8407   -1774.2794 
   50050    306.36318   -6232.7265   -5000.1968   -5224.6517   -750.52261 
   50100     302.0695   -6276.9669   -5061.7111   -5842.8409   -2611.9079 
   50150    309.28817   -6326.2416   -5081.9444   -5850.5347   -2569.9789 
   50200    306.57506   -6361.6308   -5128.2487    -6400.657   -4254.6239 
   50250    312.27405   -6441.4274   -5185.1177   -6383.9927   -4008.7463 
   50300    312.09139   -6495.2981   -5239.7232   -7049.1369   -6050.2389 
   50350    305.08638   -6520.6965   -5293.3035   -6774.6263   -4953.1829 
   50400    296.80372    -6526.365    -5332.294   -6958.0501   -5436.1328 
   50450    300.19546   -6525.6801   -5317.9638   -6547.6472   -4111.7622 
   50500    303.04551   -6493.0404    -5273.858    -6957.343   -5629.1643 
   50550    308.32217    -6474.853    -5234.442   -6433.5066     -4009.38 
   50600    310.66999   -6481.4422   -5231.5857   -6147.9781   -3064.1929 
   50650    295.47911   -6495.0525   -5306.3105   -6747.2909   -4818.2878 
   50700    298.64115   -6567.3576   -5365.8944    -7164.512   -6014.1395 
   50750    300.49041   -6589.6884   -5380.7855   -7479.0878   -7016.2124 
   50800      308.903    -6623.483   -5380.7353   -7368.6428   -6647.0789 
[...]
  987600    307.21083   -6426.4129   -5190.4731   -6241.7818   -3515.3205 
  987650    304.82827   -6385.9741   -5159.6195   -5986.0994   -2763.5477 
  987700    315.21866   -6404.4994   -5136.3432   -6154.0906   -3403.0994 
  987750     301.4472   -6365.0152    -5152.263   -5863.2246   -2377.2824 
  987800    300.22067   -6397.5773   -5189.7595   -6147.6732   -3203.0301 
  987850    307.39024    -6462.442   -5225.7803   -6776.1778   -5184.1519 
  987900    308.04378   -6484.4293   -5245.1383   -6748.5471   -5027.0331 
  987950    305.65205   -6501.3341   -5271.6654   -6526.9035   -4197.2109 
  988000    301.00835   -6535.6029   -5324.6162   -6765.6351   -4818.4165 
  988050    297.06767   -6560.8436   -5365.7106    -7145.716   -5951.9048 
  988100    300.46253   -6567.3766   -5358.5858   -7031.4839    -5593.764 
  988150    310.17106   -6576.3793   -5328.5301   -6998.4762   -5583.8933 
  988200    300.84017   -6545.3479   -5335.0378   -6478.9932   -3825.1083 
  988250    317.71197   -6636.7966   -5358.6096    -7552.133   -7334.6086 
  988300    299.61879   -6663.7893    -5458.393    -7519.894   -6893.1577 
  988350    303.94392   -6732.3906   -5509.5938   -7802.9816   -7668.5306 
  988400    293.71171   -6725.4243   -5543.7928   -7975.8098   -8132.0732 
  988450    303.51765   -6716.5417   -5495.4599   -7809.5737   -7737.8336 
  988500    303.23051   -6642.1996    -5422.273   -7326.0542   -6365.7811 
  988550    297.08681   -6545.5789   -5350.3689   -6537.8115   -3970.5191 
  988600    311.36116   -6543.4796   -5290.8426   -6535.3905   -4161.4655 
  988650    311.31167   -6546.0283   -5293.5903   -6592.0332   -4341.6771 
  988700    319.27674   -6631.8887   -5347.4064   -7417.0419   -6920.3575 
  988750    292.26215   -6633.1947   -5457.3949   -7569.8504   -7063.5373 
  988800      299.278   -6700.9736   -5496.9483   -7902.9853   -8045.2022 
  988850    288.66652   -6679.7346   -5518.4004   -7317.0569   -6014.2696 
  988900    311.08816   -6719.1704   -5467.6317   -7644.2904   -7278.2172 
  988950     307.8021   -6683.5081   -5445.1894   -7315.3932   -6253.5062 
  989000      305.818   -6633.8375   -5403.5012   -7420.1528   -6743.1923 
  989050     304.6168   -6595.0608    -5369.557   -7201.3905   -6125.2056 
  989100    318.73396    -6622.089   -5339.7904    -7075.148   -5802.6135 
  989150    314.56863   -6636.2476   -5370.7065   -7397.5786    -6777.367 
  989200    305.15654   -6648.0679   -5420.3927   -7214.8917   -6000.3681 
  989250    289.07227   -6626.6433   -5463.6767   -7379.4481   -6405.8734 
  989300    307.40464   -6687.3833   -5450.6637   -7297.0962   -6174.0208 
  989350    306.34989   -6685.8391   -5453.3628   -7234.6463   -5956.1784 
  989400    298.92178   -6664.1585   -5461.5663   -7355.6311   -6333.2919 
  989450     316.2197   -6704.6788   -5432.4953   -7594.2507   -7228.3839 
  989500    297.08393    -6658.143   -5462.9447   -7447.7097   -6636.5711 
  989550    288.66007   -6647.0149   -5485.7066   -7064.5404   -5279.2363 
  989600     306.5339   -6670.3312   -5437.1147   -7077.5357   -5485.1686 
  989650    307.69317   -6631.8625   -5393.9822   -7089.8981   -5670.7303 
  989700    312.67804   -6611.1083   -5353.1733   -7037.1095    -5630.673 
  989750    311.36525   -6620.3392   -5367.6856   -7262.1337   -6334.5733 
  989800    305.56291   -6658.3556   -5429.0455   -7341.4662   -6394.6697 
  989850    303.66116   -6672.3274   -5450.6682   -7545.1973   -7003.5956 
  989900    308.38239    -6684.954   -5444.3008   -7653.7591   -7387.8912 
  989950     291.6427   -6615.8748   -5442.5671   -7342.0894   -6351.5406 
  990000    310.88854   -6623.6857     -5372.95   -7064.0988   -5654.7899 
  990050    312.00785   -6589.2541   -5334.0153   -6755.2502   -4752.2635 
  990100    306.75001   -6583.0879    -5349.002   -6830.5303   -4953.8699 
  990150    306.51829   -6612.5021   -5379.3483   -7478.7867   -7020.0108 
  990200    302.92182   -6607.8377    -5389.153   -7300.4788   -6391.0084 
  990250    305.81878   -6644.5755    -5414.236   -7294.9234   -6288.5612 
  990300     312.1224   -6673.5424   -5417.8428   -7436.0461   -6748.3808 
  990350    310.34646   -6686.7344   -5438.1795   -7703.0983   -7573.3371 
  990400      307.314   -6705.7169    -5469.362   -8158.6281   -8992.2514 
  990450    304.98754    -6737.839   -5510.8436   -8275.7427   -9245.1495 
  990500    302.11566   -6762.0583   -5546.6168   -8214.8686   -8921.9848 
  990550    306.86035   -6776.6151   -5542.0852   -8099.2421   -8550.5103 
  990600    310.46591   -6781.6879   -5532.6525   -8134.7631   -8700.8246 
  990650    311.78374   -6769.4121    -5515.075   -8277.0189   -9235.2682 
  990700     310.7317   -6765.3104   -5515.2057   -8005.8098    -8327.974 
  990750    307.83184   -6776.6505   -5538.2123   -8209.5541   -8932.3168 
  990800    306.55426   -6802.5332   -5569.2348   -8486.0031   -9752.9635 
  990850    302.89137   -6818.0166   -5599.4543   -8270.4012   -8930.9965 
  990900    302.71353   -6840.6349   -5622.7881   -8300.0227   -8952.0211 
  990950     302.8521   -6844.8599   -5626.4556   -8577.2513   -9866.7427 
  991000    296.95909   -6812.1886   -5617.4924   -8000.3149   -7967.5785 
  991050    291.89563    -6772.006   -5597.6807   -8158.6151   -8563.1415 
  991100    305.74912   -6748.5275   -5518.4682   -7559.4532   -6824.5571 
  991150    314.40803   -6735.7207   -5470.8257   -7762.6103   -7663.1697 
  991200    304.03595   -6708.1961   -5485.0291   -7826.9537   -7830.8261 
  991250    314.68365   -6737.3947    -5471.391   -7842.5382   -7928.5393 
  991300    310.11105   -6753.0149   -5505.4072   -8238.0918   -9137.4324 
  991350    306.98939   -6800.5952   -5565.5462   -8369.3967    -9375.394 
  991400    298.37968   -6810.4666   -5610.0553   -8404.0061   -9342.2916 
  991450    303.08487   -6842.4994   -5623.1586   -8296.0623   -8937.5393 
  991500    310.50414   -6865.0537   -5615.8644   -8270.4807   -8876.3907 
  991550    301.61114   -6836.7769   -5623.3652   -8367.4293   -9175.4827 
  991600    301.55234   -6824.9819   -5611.8067    -7964.077   -7865.4194 
  991650    296.39472   -6810.9233   -5618.4978   -8150.5111   -8466.4365 
  991700    299.65981    -6792.917   -5587.3556   -8374.5429    -9319.676 
  991750    306.57415   -6775.0677   -5541.6893    -8123.367   -8632.5018 
  991800      302.946   -6758.0509   -5539.2689   -7953.7999   -8073.6041 
  991850    308.21602   -6797.3915   -5557.4076   -8114.3911   -8549.9304 
  991900    313.35503   -6873.7923   -5613.1337   -8568.4806   -9881.9608 
  991950    285.12086   -6864.4419   -5717.3722   -8626.3581    -9726.941 
  992000    290.14437   -6869.5334   -5702.2535   -8688.6848   -9985.8994 
  992050     311.0572   -6835.1877   -5583.7734   -8348.8144   -9245.6242 
  992100    307.34182   -6725.7962   -5489.3293   -7707.9005   -7418.3621 
  992150     316.2589   -6703.5346   -5431.1934   -7601.3674   -7256.5336 
  992200    306.62644   -6674.6235   -5441.0347   -7420.5382   -6618.9777 
  992250    310.52452   -6700.0331   -5450.7619   -7551.8651   -7025.5777 
  992300    306.30376   -6734.9656   -5502.6749   -7788.7093   -7643.9427 
  992350    300.57981   -6790.8916    -5581.629   -8246.8478   -8911.8432 
  992400    296.95153   -6824.1837   -5629.5181    -7922.363   -7666.7156 
  992450    298.21068   -6848.2119   -5648.4806    -8201.896   -8537.9998 
  992500    301.59629   -6856.7515   -5643.3995   -8326.9954   -8973.2917 
  992550    312.26024   -6854.7952    -5598.541   -8352.2786   -9207.8283 
  992600    309.80261   -6808.8057   -5562.4388   -8280.1468   -9087.3541 
  992650    295.67385   -6746.2112   -5556.6858    -7702.902   -7176.4249 
  992700    302.30749   -6740.1712   -5523.9579   -7482.0439   -6547.3631 
  992750     303.0203   -6710.7281   -5491.6472   -7629.2281   -7147.5505 
  992800    306.80884   -6702.2522   -5467.9295   -7572.9933   -7038.8209 
  992850    307.18686   -6676.7634   -5440.9199   -7459.3428   -6749.1151 
  992900    304.69387   -6640.8231   -5415.0091   -7132.7642    -5743.755 
  992950    320.56872   -6664.7322   -5375.0522   -7158.5786   -5963.6783 
  993000    294.06568   -6579.1897    -5396.134   -6715.1775   -4410.5603 
  993050    311.20727   -6616.2092   -5364.1912   -6865.1354   -5018.7921 
  993100    310.23814   -6653.0269   -5404.9079   -7219.5259   -6067.6411 
  993150    289.87232   -6655.7362   -5489.5508   -7267.8523   -5946.2073 
  993200    291.17311   -6689.7404   -5518.3219   -7527.1296   -6716.9641 
  993250    311.39462   -6773.0373   -5520.2657   -7884.2803   -7904.6897 
  993300    310.13056   -6814.9055   -5567.2193   -8174.3493   -8717.6083 
  993350     292.8123   -6814.3887   -5636.3756   -8130.9348   -8341.1989 
  993400    296.26149    -6837.203   -5645.3134   -8511.7436   -9584.6452 
  993450    301.65323   -6832.0971    -5618.516   -8272.7675   -8875.1712 
  993500    312.91423   -6816.2622    -5557.377   -8030.2525    -8268.694 
  993550    309.23171    -6753.449   -5509.3789    -7878.939   -7923.2322 
  993600    319.97551   -6774.7986   -5487.5051   -7991.4052   -8372.4326 
  993650    296.37016   -6709.5207    -5517.194   -7584.2529    -6911.742 
  993700    314.96742   -6752.7755   -5485.6301   -7873.8206    -7985.528 
  993750     317.7443   -6775.5883   -5497.2712   -7811.8986   -7739.5508 
  993800    308.36957   -6798.4816     -5557.88   -8063.0869   -8376.8023 
  993850    303.12483   -6818.0685    -5598.567   -8154.0757   -8544.9992 
  993900    304.94743   -6850.4581   -5623.6241   -8417.3501     -9341.54 
  993950    296.64306   -6851.2185   -5657.7938   -8600.7229   -9840.4388 
  994000    297.12369    -6822.306   -5626.9477   -8248.0445   -8764.3095 
  994050    314.91733   -6806.5599    -5539.616   -7808.3106    -7585.963 
  994100    314.09097   -6766.4099   -5502.7905   -7825.9839   -7768.1934 
  994150    304.66023    -6757.818   -5532.1395   -7878.7818   -7846.6011 
  994200      312.532   -6806.9763   -5549.6288   -8236.4545   -8984.0911 
  994250    294.32655     -6802.14   -5618.0349   -8229.3391   -8731.5659 
  994300    297.51862   -6830.4242   -5633.4771   -8262.0092   -8789.1717 
  994350    306.17463   -6836.9834   -5605.2123    -8533.453   -9791.3244 
  994400    310.21464   -6814.1201   -5566.0956   -7909.7679   -7836.6701 
  994450    303.56383   -6773.1719   -5551.9043   -7992.3803   -8160.3579 
  994500    314.43243   -6781.0022   -5516.0091   -7836.7006   -7759.8279 
  994550    318.88137    -6777.863   -5494.9713     -7807.45   -7732.3661 
  994600    296.36594   -6735.7379   -5543.4281   -7994.2576   -8194.9775 
  994650    307.51343   -6770.5885   -5533.4312   -7965.4235   -8131.9905 
  994700    315.40841   -6814.0363   -5545.1167    -8124.861   -8626.0369 
  994750    289.76701   -6771.1666   -5605.4049   -8113.1916   -8385.4283 
  994800    306.53887   -6813.9683   -5580.7317   -8278.4808   -9020.6165 
  994850    309.24211   -6783.2882   -5539.1763   -8099.6429   -8561.5771 
  994900    311.90921   -6721.1046   -5466.2626   -7458.3154   -6660.9395 
  994950    304.72709   -6663.2275     -5437.28   -7077.8845   -5485.7823 
  995000    301.12031   -6667.1234   -5455.6863   -7321.1958   -6237.8099 
  995050    308.62316   -6739.2923   -5497.6704   -7953.9883   -8213.3291 
  995100    302.99911   -6769.6618    -5550.666   -7997.9995   -8183.2876 
  995150    306.66371   -6789.4137    -5555.675   -8113.3613   -8552.2806 
  995200    290.37757   -6749.0185   -5580.8005   -7706.8891   -7109.1229 
  995250    303.57929   -6753.1194   -5531.7896    -7793.736   -7563.3983 
  995300    300.32207   -6684.9901   -5476.7644    -7500.221   -6765.9463 
  995350    305.28539    -6638.447   -5410.2533   -7208.8905    -6014.205 
  995400     316.2859   -6635.1791   -5362.7293   -7082.1982   -5749.4856 
  995450    312.01765   -6645.0458   -5389.7676    -7170.664   -5954.8844 
  995500    307.17697   -6662.6262   -5426.8225   -7448.9754   -6761.5871 
  995550      298.358   -6619.8402   -5419.5162    -7230.068   -6054.0447 
  995600    311.18152   -6592.3734    -5340.459   -6753.1122   -4723.5685 
  995650    320.95003   -6555.5117   -5264.2977   -6640.9248   -4603.1063 
  995700    319.76071   -6542.8618   -5256.4325   -6740.5271   -4962.4513 
  995750    303.41759   -6528.6168   -5307.9375   -7093.2313    -5969.588 
  995800      303.672   -6551.4047   -5329.7019   -6761.0375   -4786.0379 
  995850    299.58351   -6542.4655   -5337.2111   -6651.6471   -4395.1541 
  995900    301.63182    -6540.148   -5326.6531   -6449.2617     -3753.73 
  995950    301.59228    -6563.569   -5350.2331   -7036.5304   -5638.5677 
  996000    297.85966   -6540.6995   -5342.3803   -6391.0446   -3506.4781 
  996050    311.51485    -6546.676   -5293.4206   -6738.0655   -4830.5408 
  996100    299.19741   -6482.6433   -5278.9422   -6338.0916   -3541.5378 
  996150    310.03348   -6485.0823   -5237.7866   -6488.8015   -4183.0894 
  996200    315.31005   -6488.0131   -5219.4893   -6644.1536    -4763.731 
  996250    298.59142   -6475.0584   -5273.7953   -6256.8165   -3286.9838 
  996300    305.48318   -6559.4405   -5330.4511   -7083.5859    -5862.056 
  996350    307.38222   -6594.7139   -5358.0845   -7026.4553   -5578.6261 
  996400    313.18773   -6621.7398   -5361.7542   -7294.9743   -6464.2175 
  996450    300.85922    -6602.615   -5392.2283   -7139.6307   -5842.8884 
  996500    307.09602   -6634.7002   -5399.2222    -7051.862   -5526.0252 
  996550    303.85968   -6666.0861   -5443.6282   -7349.0816   -6371.3723 
  996600    290.21788   -6682.8328   -5515.2572   -7651.3729   -7142.6511 
  996650     287.4814   -6674.3724    -5517.806   -7562.5127   -6837.0017 
  996700    300.03107   -6627.5197   -5420.4647   -7374.2761   -6533.0696 
  996750      325.845   -6615.8929   -5304.9859   -7158.7036   -6198.3809 
  996800    311.62662   -6525.5292   -5271.8242   -6608.4642    -4469.399 
  996850    309.89398   -6528.6793   -5281.9448   -6758.1545   -4936.0859 
  996900    309.79862   -6547.4138    -5301.063   -6974.8745   -5596.8185 
  996950    310.28448   -6574.6071   -5326.3017   -6908.0334   -5288.9259 
  997000    311.13082   -6611.8719   -5360.1615   -7013.7511   -5529.2012 
  997050    297.33308   -6593.4938   -5397.2931   -7112.3629   -5734.7761 
  997100    311.60202   -6615.8524   -5362.2463   -7177.2099   -6068.7968 
  997150    304.84131   -6592.1598   -5365.7528   -7023.0548   -5541.6147 
  997200    310.73183   -6640.8189   -5390.7137   -7521.4194   -7124.5615 
  997250    307.85459   -6676.6019   -5438.0721   -7614.4411   -7277.2482 
  997300     306.2208   -6724.8261   -5492.8692   -7668.7607   -7275.6514 
  997350    295.01069   -6728.0083   -5541.1508   -7436.5497   -6337.7527 
  997400     306.3657   -6776.4563   -5543.9165   -7949.2157   -8042.7353 
  997450    311.24822   -6808.8479   -5556.6652   -7949.9123   -8002.4359 
  997500     289.6825   -6771.9089   -5606.4872   -7916.4133   -7723.8308 
  997550     298.5528   -6808.7276   -5607.6198   -8359.8731   -9202.8651 
  997600    310.75751   -6835.3823   -5585.1737   -8535.7478   -9866.0017 
  997650    316.01093   -6846.4642   -5575.1206   -8362.2941     -9319.63 
  997700    309.54764   -6849.7364   -5604.3953   -8635.8514   -10136.451 
  997750    309.47399   -6875.3383   -5630.2935   -8474.9134   -9511.7167 
  997800    290.44137   -6857.4238   -5688.9491   -8281.9028   -8670.2062 
  997850    290.21166   -6859.5288   -5691.9783   -8324.4244    -8802.259 
  997900     302.8611   -6856.9522   -5638.5118   -8422.8811   -9310.2537 
  997950    307.05362   -6817.6202   -5582.3128   -8231.1119   -8856.9396 
  998000    303.21275   -6760.5269   -5540.6717   -8027.5082   -8315.3759 
  998050    310.46729   -6725.5131   -5476.4722   -7771.9051   -7675.3689 
  998100    300.57804   -6629.7413   -5420.4858    -7298.716   -6280.3447 
  998150    326.61466   -6686.1481   -5372.1446   -7527.3925   -7206.6243 
  998200    309.18788   -6704.3801   -5460.4863   -7763.8801   -7701.9882 
  998250    297.15848   -6743.7294   -5548.2311   -7834.7366   -7645.5179 
  998300    315.45516   -6848.4539   -5579.3462   -8506.9366     -9789.15 
  998350    305.78565    -6874.485   -5644.2788   -8608.7678   -9912.5298 
  998400    306.87102   -6912.1339   -5677.5611   -8677.3488    -10030.56 
  998450    303.33481   -6904.5627   -5684.2165   -8365.7102   -8966.2625 
  998500    301.49971   -6869.3597   -5656.3962   -8326.2749   -8927.4248 
  998550    316.73859   -6857.4834   -5583.2124   -8185.6524   -8701.9262 
  998600    316.32244   -6836.8144   -5564.2176   -8487.3882   -9774.3713 
  998650    310.20974   -6835.8518    -5587.847   -8138.1415   -8527.5643 
  998700    297.78397   -6850.6697    -5652.655   -8372.4381    -9094.293 
  998750     303.1551   -6903.4077   -5683.7844    -8545.392   -9568.5194 
  998800    301.10128   -6895.3394   -5683.9789   -8265.4798   -8631.9109 
  998850    307.92878   -6875.0823   -5636.2541   -8148.7379   -8401.1344 
  998900    300.10284   -6809.8124   -5602.4686   -8065.9643   -8237.3301 
  998950    304.40414   -6794.4174   -5569.7691     -7983.72   -8071.6642 
  999000    309.59862   -6804.9219   -5559.3757   -7730.8409    -7260.851 
  999050    301.80794   -6819.3539   -5605.1504   -8253.9451    -8856.925 
  999100    296.28498     -6850.31   -5658.3259   -8306.3606   -8854.3835 
  999150     298.8426   -6868.4188   -5666.1452   -8335.8052   -8926.6936 
  999200    304.05145   -6877.6296   -5654.4002   -8583.2453   -9793.3453 
  999250    302.12757   -6856.1566   -5640.6672   -8305.9442   -8912.0375 
  999300    306.45068   -6836.5689   -5603.6872    -7857.519   -7536.2653 
  999350    304.87795   -6812.2282   -5585.6737   -7931.3382   -7843.3313 
  999400    301.56684   -6805.5207   -5592.2871   -7741.5507   -7186.6143 
  999450    308.34621   -6804.3663   -5563.8586   -7970.1136   -8045.9312 
  999500    304.14426   -6774.6128     -5551.01   -7690.8625    -7155.146 
  999550     307.2741   -6780.5739   -5544.3795   -7964.6491   -8092.7927 
  999600     302.8864   -6795.2298   -5576.6876   -7881.5153   -7706.7831 
  999650    308.52238    -6862.616   -5621.3996   -8528.2452   -9719.7843 
  999700    298.47717   -6870.7933   -5669.9898   -8302.3955   -8802.1242 
  999750    309.41649   -6890.4794   -5645.6659   -8757.4023   -10404.889 
  999800    306.69751   -6846.8697   -5612.9949   -8328.4217   -9079.7263 
  999850    317.28952   -6829.9145    -5553.427   -7993.8954   -8160.3326 
  999900    311.63218   -6802.8575   -5549.1301     -7737.36   -7316.9085 
  999950    305.70453   -6837.8538   -5607.9739   -8265.6628    -8886.665 
 1000000    305.01052   -6895.3936   -5668.3058   -8368.6672   -9029.3513 
Loop time of 4613.43 on 8 procs for 1000000 steps with 2004 atoms

Performance: 37.456 ns/day, 0.641 hours/ns, 216.758 timesteps/s
100.0% CPU use with 8 MPI tasks x 1 OpenMP threads

MPI task timing breakdown:
Section |  min time  |  avg time  |  max time  |%varavg| %total
---------------------------------------------------------------
Pair    | 3190.7     | 3256       | 3335.3     |  81.1 | 70.58
Bond    | 1.8448     | 8.8041     | 25.569     | 231.3 |  0.19
Kspace  | 527.1      | 597.01     | 673.74     | 207.9 | 12.94
Neigh   | 292.85     | 294.7      | 296.65     |  10.0 |  6.39
Comm    | 159.38     | 170.61     | 182.39     |  69.2 |  3.70
Output  | 0.59561    | 0.60961    | 0.62573    |   1.5 |  0.01
Modify  | 154.44     | 156.93     | 159.8      |  17.0 |  3.40
Other   |            | 128.7      |            |       |  2.79

Nlocal:    250.5 ave 267 max 240 min
Histogram: 2 2 1 0 0 0 1 0 1 1
Nghost:    4962.5 ave 5024 max 4897 min
Histogram: 1 1 0 0 2 0 2 1 0 1
Neighs:    88554 ave 95892 max 83682 min
Histogram: 2 2 1 0 0 0 0 1 1 1

Total # of neighbors = 708432
Ave neighs/atom = 353.509
Ave special neighs/atom = 2.34032
Neighbor list builds = 86925
Dangerous builds = 0

#write_restart     restart.peptide.${rep}.*
#write_data        data.peptide.${rep}

quit
