LAMMPS (11 May 2018)
Processor partition = 0
OMP_NUM_THREADS environment is not set. Defaulting to 1 thread. (../comm.cpp:87)
  using 1 OpenMP thread(s) per MPI task
# Must be run with at LEAST 2 procs in 'partition mode'

units           real
atom_style      full

pair_style        lj/charmm/coul/long 8.0 10.0 10.0
bond_style        harmonic
angle_style       charmm
dihedral_style    charmm
improper_style    harmonic
kspace_style      pppm 0.0001

# Define variables
variable tlo world 220 270
variable thi world 300 350
variable rep world 0 1
variable temp equal 305.0
variable steps equal 1000000

read_data         data.peptide
  orthogonal box = (36.8402 41.0137 29.7681) to (64.2116 68.3851 57.1395)
  1 by 2 by 2 MPI processor grid
  reading atoms ...
  2004 atoms
  reading velocities ...
  2004 velocities
  scanning bonds ...
  3 = max bonds/atom
  scanning angles ...
  6 = max angles/atom
  scanning dihedrals ...
  14 = max dihedrals/atom
  scanning impropers ...
  1 = max impropers/atom
  reading bonds ...
  1365 bonds
  reading angles ...
  786 angles
  reading dihedrals ...
  207 dihedrals
  reading impropers ...
  12 impropers
  4 = max # of 1-2 neighbors
  7 = max # of 1-3 neighbors
  14 = max # of 1-4 neighbors
  18 = max # of special neighbors

neighbor          2.0 bin
neigh_modify      delay 5

timestep          2.0

thermo_style      custom step temp pe etotal enthalpy press
thermo            50

fix               1 all nvt temp ${temp} ${temp} 100.0 tchain 1
fix               1 all nvt temp 305 ${temp} 100.0 tchain 1
fix               1 all nvt temp 305 305 100.0 tchain 1
fix               fxSTMD all stmd ${steps} constant_f 0.001 0.00002 ${tlo} ${thi} -8500 -5500 12 50000 500000 ${temp} no
fix               fxSTMD all stmd 1000000 constant_f 0.001 0.00002 ${tlo} ${thi} -8500 -5500 12 50000 500000 ${temp} no
fix               fxSTMD all stmd 1000000 constant_f 0.001 0.00002 220 ${thi} -8500 -5500 12 50000 500000 ${temp} no
fix               fxSTMD all stmd 1000000 constant_f 0.001 0.00002 220 300 -8500 -5500 12 50000 500000 ${temp} no
fix               fxSTMD all stmd 1000000 constant_f 0.001 0.00002 220 300 -8500 -5500 12 50000 500000 305 no
fix               2 all shake 0.0001 10 0 b 4 6 8 10 12 14 18 a 31
  19 = # of size 2 clusters
  6 = # of size 3 clusters
  3 = # of size 4 clusters
  640 = # of frozen angles

group             peptide type <= 12
84 atoms in group peptide
#dump              mydump peptide dcd 1000 ${rep}.dcd
#dump_modify       mydump unwrap yes

# Run in partition mode, but with exchanges OFF until STG2
temper/stmd       ${steps} 1000 ${temp} fxSTMD 0 12345 off
temper/stmd       1000000 1000 ${temp} fxSTMD 0 12345 off
temper/stmd       1000000 1000 305 fxSTMD 0 12345 off
PPPM initialization ...
  using 12-bit tables for long-range coulomb (../kspace.cpp:321)
  G vector (1/distance) = 0.268725
  grid = 15 15 15
  stencil order = 5
  estimated absolute RMS force accuracy = 0.0228209
  estimated relative force accuracy = 6.87243e-05
  using double precision FFTs
  3d grid and FFT values/proc = 4312 960
RESTMD: #replicas= 2  walker= 0
STMD: STAGE= 1, #bins= 251  binsize= 12.000000
  Emin= -8500.000000 Emax= -5500.000000 f-value= 1.024290 df= 0.001000
  f-tolerances: STG3= 1.000480 STG4= 1.000048
Neighbor list info ...
  update every 1 steps, delay 5 steps, check yes
  max neighbors/atom: 2000, page size: 100000
  master list distance cutoff = 12
  ghost atom cutoff = 12
  binsize = 6, bins = 5 5 5
  1 neighbor lists, perpetual/occasional/extra = 1 0 0
  (1) pair lj/charmm/coul/long, perpetual
      attributes: half, newton on
      pair build: half/bin/newton
      stencil: half/bin/3d/newton
      bin: standard
  STMD DIG: istep= 0  TSC1= 50000 Tlow= 0.983286
Per MPI rank memory allocation (min/avg/max) = 15.69 | 15.88 | 16.08 Mbytes
Step Temp PotEng TotEng Enthalpy Press 
       0    303.06656   -6135.9847   -4916.7176   -4977.5114   -203.27973 
      50    296.24282   -6119.2434    -4927.429   -5485.9724   -1867.6334 
     100    305.70481   -6187.7002   -4957.8192   -5219.8774   -876.25876 
     150    295.16212   -6193.8158   -5006.3491    -5522.498   -1725.8763 
     200    296.28989   -6165.4374   -4973.4336   -5304.5409   -1107.1422 
     250    324.62349    -6208.873   -4902.8802   -4982.2851   -265.51059 
     300    305.35278   -6151.3145   -4922.8498   -4948.4435   -85.579298 
     350    311.27609   -6216.4709   -4964.1761   -5476.2211   -1712.1541 
     400    297.47615   -6213.5481   -5016.7718   -5421.2357   -1352.4289 
     450    299.72575   -6268.8676   -5063.0409   -5454.0127   -1307.3143 
     500    296.74125   -6249.8966   -5056.0769   -5515.2605   -1535.3981 
     550     300.6869   -6213.9647   -5004.2712    -5230.099    -755.1132 
     600    312.28824   -6187.0557   -4930.6889     -5278.15   -1161.8254 
     650    307.58872    -6152.176   -4914.7158   -5194.0806   -934.12771 
     700    297.48903   -6152.2236   -4955.3955   -5098.7643   -479.39033 
     750    299.26431   -6179.5377   -4975.5675   -5450.2704    -1587.291 
     800    313.60761    -6244.284   -4982.6093   -5533.4158   -1841.7629 
     850    310.73224   -6248.9258    -4998.819   -5754.1126   -2525.5179 
     900    300.01708   -6248.3224   -5041.3237   -5344.5843   -1014.0294 
     950    297.50346   -6253.4327   -5056.5465   -5653.6672   -1996.6262 
    1000     295.7345   -6213.1857   -5023.4163   -5631.1536   -2032.1259 
    1050    312.96872   -6228.8364    -4969.732   -5400.5266   -1440.4725 
    1100    311.19919    -6206.366   -4954.3806   -5096.4928   -475.18863 
    1150    305.07991   -6223.1996   -4995.8326   -5321.6489   -1089.4505 
    1200    308.59995   -6274.0196   -5032.4911   -5658.5181   -2093.2818 
    1250    302.86339   -6280.7748   -5062.3251   -5849.5294   -2632.2196 
    1300    296.42867   -6271.4911   -5078.9289   -5626.3635   -1830.4879 
    1350    307.00176   -6283.6393   -5048.5406   -5893.6539   -2825.8532 
    1400    294.85784     -6192.83   -5006.5875   -5353.8046   -1161.0096 
    1450    320.94428   -6221.3255   -4930.1345   -5358.4244   -1432.0972 
    1500    314.50146   -6168.9071   -4903.6363   -4971.8944   -228.23857 
    1550    301.75318   -6140.2045   -4926.2213   -5320.1019   -1317.0407 
    1600    295.98576   -6149.6274   -4958.8471   -5113.3902   -516.75441 
    1650    314.48903   -6233.9401   -4968.7193   -5444.6397   -1591.3618 
    1700    301.45508   -6190.2826   -4977.4986   -5188.9025   -706.88322 
    1750    297.80603   -6168.5835     -4970.48   -5238.1907   -895.15933 
    1800    313.11125    -6184.095   -4924.4171   -5008.4353   -280.93656 
    1850    310.84633   -6160.9687   -4910.4028   -5051.0185   -470.18465 
    1900    313.84471   -6210.8446   -4948.2159   -5600.7386   -2181.8773 
    1950    300.02248   -6216.8802   -5009.8597   -5677.9293   -2233.8622 
    2000      298.308   -6241.0147   -5040.8918   -5628.7815   -1965.7601 
    2050    298.77533   -6227.2219   -5025.2189   -5519.1748   -1651.6684 
    2100    314.92327   -6256.6757   -4989.7079    -5750.349   -2543.3985 
    2150    314.54312   -6201.2975   -4935.8591   -5519.3558   -1951.0713 
    2200    306.54501   -6183.7419   -4950.4807   -5176.7431   -756.56635 
    2250     299.1307   -6212.4584   -5009.0257   -5454.3009   -1488.8921 
    2300    300.00973   -6254.6926   -5047.7235   -5945.2498   -3001.1098 
    2350    311.08747   -6308.8255   -5057.2895   -5548.4146   -1642.2029 
    2400    304.75282   -6289.2504   -5063.1993   -5899.1589   -2795.2454 
    2450    307.67211   -6309.9838   -5072.1881   -5618.0476   -1825.2211 
    2500     304.7623   -6309.9814   -5083.8923   -5885.3213   -2679.7837 
    2550     297.8849   -6287.2263   -5088.8056   -5802.5935   -2386.7333 
    2600     301.7272    -6292.248   -5078.3693   -5519.5274   -1475.1254 
    2650     301.8685   -6278.6528   -5064.2057    -5547.609   -1616.3829 
    2700    310.69479   -6313.4144   -5063.4582   -5772.5795   -2371.1293 
    2750    294.08274   -6288.5881   -5105.4639   -5480.8718   -1255.2725 
    2800    293.54697   -6266.1055   -5085.1367   -5573.7672   -1633.8617 
    2850    304.06418    -6221.524   -4998.2434    -5649.358   -2177.1686 
    2900    298.43757   -6132.0322   -4931.3881   -5098.4511   -558.61806 
    2950    313.13029   -6142.0102   -4882.2557   -5069.7491   -626.93234 
    3000    306.45556   -6134.2821   -4901.3808   -5205.1883   -1015.8583 
    3050    305.90732   -6222.9985   -4992.3028     -5571.89   -1937.9986 
    3100    293.18143   -6265.4939   -5085.9957    -5427.316   -1141.2921 
    3150    294.43477   -6310.5949   -5126.0543   -5915.0644   -2638.2576 
    3200    305.41515   -6339.1627   -5110.4471   -5680.0872   -1904.7379 
    3250    310.12561   -6319.7125   -5072.0461    -5973.054   -3012.7511 
    3300    309.73879   -6313.1548   -5067.0447    -5577.045   -1705.3171 
    3350    291.48088   -6250.5863   -5077.9296   -5393.0448   -1053.6684 
    3400    301.86618   -6236.8663   -5022.4285   -5583.4467   -1875.9084 
    3450    312.06315    -6171.454   -4915.9928   -5329.3337   -1382.1115 
    3500    308.68776   -6086.3212   -4844.4395   -4896.4227   -173.81945 
    3550    313.37745   -6101.1057   -4840.3568   -5322.6495   -1612.6693 
    3600    314.14656   -6178.7847   -4914.9417   -5303.3377   -1298.7018 
    3650    299.28793    -6211.273   -5007.2077    -5694.429   -2297.9008 
    3700    294.15943   -6238.9981   -5055.5653   -5652.2339   -1995.1146 
    3750    300.31904   -6253.9871   -5045.7736   -5349.6862   -1016.2099 
    3800    307.40073   -6239.2271   -5002.5233   -5524.4155   -1745.0805 
    3850    299.60285   -6149.0892    -4943.757   -5257.0496   -1047.5742 
    3900    313.08663   -6156.3043   -4896.7254   -5117.3689   -737.77797 
    3950    302.30242   -6137.0479   -4920.8551   -5231.7037   -1039.4022 
    4000    295.45775   -6136.7753   -4948.1192    -5422.129   -1584.9733 
    4050    301.54204    -6154.579   -4941.4453   -5258.6657   -1060.7079 
    4100    303.91012   -6155.7403   -4933.0795   -5248.1625   -1053.5611 
    4150    317.43229   -6190.0207   -4912.9589   -5427.5186   -1720.5623 
    4200    304.78592   -6176.0944   -4949.9102   -5590.8573    -2143.171 
    4250    309.52477   -6220.1744   -4974.9253   -5581.5965   -2028.5606 
    4300    308.47605   -6256.8458   -5015.8158   -5393.1582   -1261.7411 
    4350    303.11507   -6299.3088   -5079.8465   -5486.2629   -1358.9575 
    4400    302.74435   -6338.7374   -5120.7666   -6041.8802   -3079.9794 
    4450    304.81439   -6364.2941   -5137.9953   -5900.7682   -2550.5271 
    4500    302.58357   -6339.9237   -5122.5997   -5915.3874   -2650.8891 
    4550    302.42996   -6304.0621   -5087.3562    -5709.248    -2079.455 
    4600    305.30334   -6257.3388   -5029.0729   -5380.3607    -1174.621 
    4650    312.50027   -6209.0478    -4951.828   -5519.3941   -1897.8031 
    4700    307.11796   -6162.7503   -4927.1841   -5325.5919   -1332.1788 
    4750    315.09716   -6221.4283   -4953.7609   -5109.4136   -520.46461 
    4800    307.82096   -6282.9132   -5044.5187   -5870.2447   -2761.0265 
    4850    295.52375     -6308.15   -5119.2285   -5484.0596   -1219.9065 
    4900     307.9647    -6374.413   -5135.4402   -5511.4945    -1257.434 
    4950    286.76873   -6304.4051   -5150.7059     -5563.28   -1379.5475 
    5000     299.4761   -6307.8463    -5103.024   -5720.6506    -2065.193 
    5050     307.6478   -6289.5889   -5051.8911   -5392.5357   -1139.0326 
    5100    308.26118   -6257.2772   -5017.1116   -5644.0892   -2096.4604 
    5150    307.98415   -6242.5077   -5003.4567   -5120.7155   -392.08489 
    5200    315.36233   -6315.6403   -5046.9061   -5781.9532   -2457.8188 
    5250    299.43847   -6309.7225   -5105.0516   -5733.3561   -2100.8973 
    5300    297.71111   -6322.7201   -5124.9985   -5752.9081    -2099.577 
    5350    299.30439   -6321.8937   -5117.7622   -5693.1393   -1923.9213 
    5400     301.5896   -6315.2058   -5101.8807   -5783.8988   -2280.5025 
    5450    309.05616   -6331.0221   -5087.6583   -6010.3153   -3085.1405 
    5500    306.40318   -6351.3363   -5118.6457   -5968.7389   -2842.5048 
    5550    295.55352    -6362.735   -5173.6937   -5987.5003   -2721.1712 
    5600    302.38456   -6394.0666   -5177.5433   -5946.6594   -2571.7371 
    5650      308.424   -6373.2545   -5132.4339   -5829.5525   -2330.9951 
    5700    301.11511    -6318.582   -5107.1658   -5871.5865    -2556.037 
    5750    296.80483   -6259.6889   -5065.6134   -5469.8613   -1351.7065 
    5800    315.32507   -6269.6914   -5001.1071   -5404.3913   -1348.4842 
    5850    307.99571   -6216.6435    -4977.546    -5381.559   -1350.9213 
    5900    312.10179   -6258.6308   -5003.0141   -5291.3446    -964.1072 
    5950    298.81342   -6268.2842    -5066.128    -5592.473   -1759.9695 
    6000    308.00813   -6318.0327   -5078.8852   -5570.9172   -1645.2352 
    6050    310.33274   -6326.7311   -5078.2314   -5899.2786   -2745.3819 
    6100    301.54906   -6320.3027   -5107.1407    -5740.985    -2119.421 
    6150    292.64253   -6286.5564   -5109.2263   -5407.6481   -997.84991 
    6200    309.77836   -6296.2782   -5050.0089   -5501.1827   -1508.6154 
    6250    313.34622   -6227.3069   -4966.6837   -5104.0079   -459.17885 
    6300    319.13013   -6198.6307   -4914.7383   -5473.0465   -1866.8468 
    6350    312.95848    -6175.364   -4916.3008   -5331.5072   -1388.3494 
    6400    317.39408   -6258.8748   -4981.9667   -5600.7193    -2068.958 
    6450    300.36288   -6275.5892   -5067.1993    -5884.718   -2733.5836 
    6500    290.66266   -6246.9876   -5077.6227   -5382.8873   -1020.7305 
    6550    309.09897   -6260.5629   -5017.0269   -5466.3121   -1502.3003 
    6600    296.03176   -6143.2692   -4952.3039   -4734.9361    726.82475 
    6650    315.66952   -6166.0654   -4896.0954     -5465.91   -1905.3215 
    6700    321.09478   -6192.6967   -4900.9003   -5340.1122   -1468.6178 
    6750    304.12495   -6184.5485   -4961.0234   -5371.2695    -1371.763 
    6800    303.25021   -6220.0659   -5000.0599   -5472.5355   -1579.8432 
    6850    301.20015   -6217.9478   -5006.1895   -5182.8517   -590.71562 
    6900    296.18294   -6181.6317   -4990.0581    -5026.227   -120.93994 
    6950    310.76347   -6228.7926   -4978.5601   -5448.3181   -1570.7567 
    7000    294.21135   -6169.6664   -4986.0247   -5227.2475   -806.59028 
    7050    303.41788   -6202.4546   -4981.7742   -5318.6707   -1126.5001 
    7100     310.9126   -6234.2255    -4983.393   -5225.8687   -810.77949 
    7150    306.18524   -6275.0395   -5043.2257   -5527.4527   -1619.1371 
    7200    287.76942   -6294.4746   -5136.7494   -5925.2464   -2636.5421 
    7250    304.76349   -6392.4524   -5166.3584   -6073.5977   -3033.5874 
    7300    297.68372   -6339.2832   -5141.6718   -6193.6324      -3517.5 
    7350     306.9932   -6314.9168   -5079.8525   -5740.4542   -2208.8913 
    7400    318.40955   -6293.8725   -5012.8791   -5575.0263   -1879.6835 
    7450    304.84807   -6229.1041   -5002.6698   -5409.3849   -1359.9563 
    7500    309.71332   -6275.8972   -5029.8895   -5794.1735   -2555.5795 
    7550    302.95342   -6278.5128   -5059.7009   -5459.0664   -1335.3808 
    7600    301.46327   -6310.6297   -5097.8128   -5679.8952   -1946.3419 
    7650    293.44104    -6312.387   -5131.8443   -5706.1696    -1920.404 
    7700    304.57763   -6353.5676   -5128.2213   -5933.9269   -2694.0833 
    7750    306.35487   -6381.5252   -5149.0289   -6252.2047   -3688.7515 
    7800    292.55697   -6363.7856   -5186.7997   -6075.3099   -2970.9619 
    7850    307.95497   -6410.4118   -5171.4782   -5855.0296   -2285.6295 
    7900    294.24344   -6339.4008     -5155.63   -5885.0699   -2439.0694 
    7950    315.51399   -6384.7674    -5115.423    -5974.578   -2872.8051 
    8000    301.18353   -6315.4968   -5103.8053   -5614.3368    -1707.093 
    8050    306.26947   -6302.9773   -5070.8246   -5658.0431   -1963.5157 
    8100    294.14746   -6220.0784   -5036.6938   -5361.7187   -1086.8043 
    8150    307.30623   -6227.9994   -4991.6757   -5193.7631   -675.73113 
    8200    302.71738   -6188.8916   -4971.0293   -5201.8853   -771.92628 
    8250    301.76455   -6166.5958   -4952.5668   -5293.3395   -1139.4609 
    8300    314.37808    -6172.286   -4907.5116   -5353.4419   -1491.0827 
    8350    316.84293   -6167.9549   -4893.2641   -5457.0575   -1885.1878 
    8400    300.95985   -6169.3965    -4958.605    -5299.541   -1140.0069 
    8450    296.55371   -6243.4061   -5050.3409   -5816.6649    -2562.401 
    8500    298.60461   -6301.6105   -5100.2943   -5817.3911   -2397.7971 
    8550     305.3794   -6338.1376   -5109.5658   -6263.5395   -3858.6073 
    8600    313.20103   -6368.7858   -5108.7468   -6178.4106   -3576.6955 
    8650    298.88292   -6323.0962   -5120.6603    -5877.341   -2530.1561 
    8700    304.39062   -6351.1714   -5126.5775   -5952.5103   -2761.7184 
    8750    303.51307   -6376.2103   -5155.1468   -6377.5093   -4087.2827 
    8800    311.20121   -6420.4902   -5168.4966   -5783.3528   -2055.9293 
    8850    303.44679   -6406.6276   -5185.8308   -6228.1252   -3485.1788 
    8900    292.70281   -6370.8797   -5193.3071   -6077.3643   -2956.0722 
    8950    314.02243   -6404.5109   -5141.1672    -6376.718    -4131.381 
    9000    304.11068   -6335.7864   -5112.3187   -5966.5711    -2856.412 
    9050    305.88416   -6324.0483   -5093.4458   -5662.2936   -1902.0888 
    9100    301.57828    -6306.389   -5093.1095   -5464.3279    -1241.264 
    9150    302.58553   -6335.0374   -5117.7056   -5960.4536   -2817.9444 
    9200    303.64434   -6319.7833   -5098.1918   -5961.1878   -2885.6487 
    9250    299.52912   -6226.4147   -5021.3791   -5340.7338   -1067.8446 
    9300    319.79725    -6223.843   -4937.2667   -4790.8943    489.43377 
    9350      313.369   -6217.2864   -4956.5716   -4921.6694    116.70425 
    9400    308.86821   -6283.2505   -5040.6428   -5388.0427   -1161.6207 
    9450    303.20049   -6358.2007   -5138.3948   -5980.4554   -2815.6456 
    9500    301.70967   -6397.4213   -5183.6131   -6379.4696    -3998.653 
    9550    310.27228   -6418.5935   -5170.3371   -6074.4359   -3023.0863 
    9600    305.26499   -6368.4256    -5140.314   -5939.7094   -2672.9837 
    9650    299.42372   -6322.6134   -5118.0018   -5701.3782   -1950.6685 
    9700    305.37558   -6325.6377   -5097.0812   -5819.8577   -2416.7888 
    9750    296.91291    -6280.902   -5086.3917   -5436.3477   -1170.1677 
    9800    304.53818   -6264.0325    -5038.845    -5433.723   -1320.3758 
    9850    308.18643   -6252.2058   -5012.3409   -5364.7897    -1178.503 
    9900     295.7141   -6194.7055   -5005.0181   -5125.2684   -402.08768 
    9950    301.30771   -6173.9958   -4961.8047   -5067.8589    -354.6192 
   10000    325.32919   -6222.3069   -4913.4751   -5141.7211   -763.19935 
   10050    303.33049   -6179.2974   -4958.9685    -5219.485   -871.10385 
   10100    302.21838   -6245.6051   -5029.7504   -5316.9118   -960.19782 
   10150    304.92722   -6337.9659   -5111.2132   -5672.1429   -1875.6124 
   10200     293.2718   -6368.1874   -5188.3257   -6062.3253   -2922.4421 
   10250    295.10981   -6413.3769   -5226.1207    -6338.508   -3719.5526 
   10300     284.1012   -6355.3219   -5212.3544   -6071.7924   -2873.7517 
   10350    304.72055   -6332.9211   -5106.9999   -5807.1305   -2341.0664 
   10400    318.97303   -6293.7022   -5010.4418   -5238.0788   -761.16289 
   10450    302.08497   -6197.4041   -4982.0861   -5063.9742   -273.81378 
   10500    308.49348   -6260.9511    -5019.851   -5727.0196   -2364.5997 
   10550    298.73437   -6292.9619   -5091.1236   -5722.1954   -2110.1504 
   10600    302.00401   -6324.3872   -5109.3949    -6011.406   -3016.1056 
   10650     306.8496   -6298.1388   -5063.6522   -5499.1553   -1456.2164 
   10700    303.99864   -6211.5793   -4988.5623   -5453.3795   -1554.2354 
   10750    309.47085   -6184.5102   -4939.4781   -4938.5546    3.0877642 
   10800      299.975    -6135.371   -4928.5416   -4945.9662   -58.263531 
   10850    311.19139   -6180.8395   -4928.8855   -5140.1758   -706.50359 
   10900    301.81793   -6170.9693   -4956.7256   -4883.3848    245.23372 
   10950    294.35969   -6170.4696   -4986.2311   -5230.0177   -815.16308 
   11000    297.51361    -6182.885    -4985.958   -5424.2872   -1465.6663 
   11050    304.80107   -6201.9396   -4975.6945   -5087.5639   -374.06422 
   11100    304.18277    -6219.915   -4996.1573   -5841.0128   -2824.9913 
   11150    308.23856   -6234.9668   -4994.8922   -5624.2353     -2104.37 
   11200    311.71928   -6229.7308    -4975.653   -5540.8474   -1889.8724 
   11250    317.79452   -6251.1423   -4972.6231   -5725.2592   -2516.6317 
   11300    310.61208   -6243.0905    -4993.467   -5790.9288   -2666.5181 
   11350    309.95563   -6232.7946   -4985.8121   -5923.6105   -3135.7696 
   11400     311.1292   -6237.4206   -4985.7167   -5875.4356   -2975.0035 
   11450    311.96916   -6278.7854   -5023.7023   -5737.8642   -2387.9835 
   11500    305.55135    -6328.741   -5099.4773   -5831.4703   -2447.6064 
   11550     300.5064    -6369.858   -5160.8907   -6017.2553   -2863.4747 
   11600    297.45944   -6394.1173   -5197.4082   -6029.2382    -2781.437 
   11650    302.33311   -6432.3844   -5216.0681    -6020.738   -2690.6206 
   11700    301.29139   -6425.8152   -5213.6898   -5983.6484   -2574.5541 
   11750    301.30679   -6399.5689   -5187.3816   -6114.6516   -3100.5653 
   11800    307.40613   -6383.6846   -5146.9591    -5882.003   -2457.8079 
   11850    307.89968   -6382.9448   -5144.2336   -5979.4505   -2792.7622 
   11900    304.22753   -6387.6071   -5163.6693   -6102.7241   -3139.9707 
   11950    301.04816   -6377.9249   -5166.7781   -5957.0274   -2642.4015 
   12000    293.02793   -6346.8604   -5167.9798    -5866.188   -2334.6383 
   12050    296.31087   -6319.9623   -5127.8741    -5407.355   -934.51629 
   12100    313.45125   -6321.8541   -5060.8084   -5739.7564   -2270.2371 
   12150    309.85129   -6264.0234   -5017.4607   -5514.5695    -1662.211 
   12200     319.0279     -6286.87   -5003.3888   -5431.8685   -1432.7318 
   12250     306.7138   -6305.3388   -5071.3985   -5821.3094   -2507.5193 
   12300    291.08548   -6317.9612   -5146.8952   -5688.0213    -1809.394 
   12350    295.12635    -6346.566   -5159.2432   -5972.3958   -2718.9846 
   12400    297.01812   -6306.4627   -5111.5291   -5354.0433   -810.90831 
   12450    304.30168   -6254.4617   -5030.2256   -5501.8512   -1577.0013 
   12500    311.14163   -6215.8736   -4964.1197   -5362.3401    -1331.552 
   12550    312.02895   -6202.9109   -4947.5873   -5034.1458   -289.43082 
   12600     305.8476   -6220.4456   -4989.9901    -5396.994   -1360.9219 
   12650    299.99589     -6243.69   -5036.7766   -5800.6556   -2554.2253 
   12700    301.07788   -6273.4087   -5062.1423   -5721.1661   -2203.6151 
   12750    300.52233   -6281.7564   -5072.7251   -5529.4146   -1527.0588 
   12800    306.23979   -6307.1594   -5075.1261   -5766.8187   -2312.8518 
   12850    296.66182   -6298.4545   -5104.9544   -5500.9487   -1324.1089 
   12900    315.31923   -6408.1558    -5139.595   -6136.8264    -3334.499 
   12950     296.9729   -6391.3384   -5196.5867   -6382.7989   -3966.4048 
   13000    304.83432   -6448.4139    -5222.035   -5857.1497   -2123.6691 
   13050    304.08785   -6449.2606   -5225.8848   -5920.9604   -2324.1637 
   13100    307.57029   -6447.0785   -5209.6925   -6162.1042   -3184.6329 
   13150    308.63741   -6423.1381   -5181.4589   -6235.2863   -3523.7422 
   13200    296.50224   -6373.2693   -5180.4112   -6139.1436   -3205.7678 
   13250    302.57419   -6356.7413   -5139.4551    -5792.543    -2183.767 
   13300      311.676    -6342.124   -5088.2203   -5810.4523   -2414.9679 
   13350    302.22658     -6286.54   -5070.6522   -5402.2841   -1108.8964 
   13400    300.97333   -6279.7294   -5068.8836   -5070.5826   -5.6809758 
   13450    308.81754   -6327.4661   -5085.0623   -5664.3384   -1936.9582 
   13500     308.8844   -6350.8336   -5108.1608   -6089.6414   -3281.8324 
   13550    302.31568   -6365.2627   -5149.0165   -6067.9037   -3072.5353 
   13600    303.70586   -6404.4553   -5182.6162   -6349.0771   -3900.3613 
   13650    300.43889   -6410.0869   -5201.3912   -6396.6711    -3996.725 
   13700    300.77075   -6404.7072   -5194.6764   -6394.7771   -4012.8447 
   13750    309.08266   -6395.7237   -5152.2533   -5943.4691   -2645.6334 
   13800    306.28797   -6378.7397   -5146.5126   -5834.9414   -2301.9385 
   13850    289.22075   -6326.6888   -5163.1249   -5814.7119   -2178.7484 
   13900    302.26414   -6344.1452   -5128.1063   -5905.9297   -2600.8521 
   13950    297.26596   -6254.3536   -5058.4229   -5742.2327   -2286.4935 
   14000    315.03396   -6226.7057   -4959.2926   -5279.6763   -1071.2854 
   14050    313.25591   -6199.2773   -4939.0175   -5184.6361   -821.28903 
   14100    297.67385   -6179.0458   -4981.4741   -4867.8243    380.01741 
   14150    288.10985   -6162.8643   -5003.7696   -5307.5441    -1015.748 
   14200    314.54839   -6228.8795   -4963.4199   -5443.0494   -1603.7644 
   14250    309.59928   -6178.7278    -4933.179   -5299.2224   -1223.9601 
   14300    310.75822   -6185.7567   -4935.5454   -5326.0684   -1305.8139 
   14350    304.65912   -6225.9239   -5000.2498   -5620.4691   -2073.8623 
   14400    310.23992   -6323.2479   -5075.1217   -5801.9078   -2430.1959 
   14450     289.4602   -6280.3747   -5115.8474   -5677.7036   -1878.7104 
   14500      309.855   -6317.8638   -5071.2862   -5967.8665   -2997.9462 
   14550    302.55988   -6245.9753   -5028.7466   -5536.9134    -1699.186 
   14600    300.69121    -6193.798   -4984.0872    -5345.683   -1209.0885 
   14650    302.15563   -6169.6102   -4954.0079   -5215.8609   -875.57284 
   14700    302.37876   -6153.5865   -4937.0865   -5098.4912   -539.69799 
   14750    297.82972   -6153.6054   -4955.4066   -5169.7997   -716.87819 
   14800    300.89622   -6198.6946    -4988.159   -5413.1331   -1421.0101 
   14850    300.43931   -6221.9277   -5013.2303    -5700.922   -2299.4737 
   14900    315.91449   -6309.7964   -5038.8408   -5660.3104    -2078.043 
   14950    308.54528   -6316.2436   -5074.9351   -6085.9868   -3380.7108 
   15000    294.64979   -6290.0279   -5104.6224   -5678.7664   -1919.7978 
   15050    301.45119   -6270.2738   -5057.5056   -5699.1612   -2145.5402 
   15100    307.97427   -6219.1642    -4980.153   -5881.7614    -3014.759 
   15150    301.89407   -6136.0148   -4921.4648   -5081.6642   -535.66771 
   15200    322.69769   -6204.9918   -4906.7467   -5261.8319   -1187.3182 
   15250     311.5721   -6229.2751   -4975.7894   -5449.4041   -1583.6524 
   15300    299.90151   -6275.5914   -5069.0576   -5834.6198   -2559.8536 
   15350    296.97144   -6311.1515   -5116.4057    -6072.659   -3197.4784 
   15400    303.65647   -6315.2652   -5093.6249     -5517.15   -1416.1649 
   15450    311.61036   -6342.2304   -5088.5908   -6011.6383   -3086.4464 
   15500    308.92983   -6339.8619   -5097.0063   -6116.9757   -3410.5294 
   15550      295.487   -6259.1771   -5070.4033   -5661.4991   -1976.4804 
   15600     306.8932   -6220.3928   -4985.7308   -5706.3057   -2409.4271 
   15650    315.21416   -6207.4108   -4939.2727   -5170.7511   -774.00739 
   15700    302.85855   -6158.3239   -4939.8937   -5217.6474    -928.7408 
   15750    311.52304    -6197.624   -4944.3356   -5150.8219   -690.43977 
   15800    316.52531   -6256.8068   -4983.3938   -5581.1382   -1998.7119 
   15850    293.17682   -6250.1034   -5070.6237   -5728.0901   -2198.4077 
   15900    308.17111   -6334.3211   -5094.5179   -6402.0101   -4371.9357 
   15950     306.9414   -6330.2802   -5095.4243   -6145.7426   -3512.0088 
   16000    284.50628   -6241.3644   -5096.7672     -5763.02   -2227.7872 
   16050    299.55568   -6215.9095    -5010.767   -5592.1284   -1943.9308 
   16100     311.9788   -6166.7726   -4911.6507   -4904.1116    25.208905 
   16150    316.69442   -6155.9026   -4881.8093   -5060.1848     -596.444 
   16200    305.04279   -6165.9644   -4938.7468   -5429.3515   -1640.4628 
   16250    295.91819   -6223.4025   -5032.8941   -5391.1141   -1197.8005 
   16300     298.2179   -6328.5068   -5128.7464   -5962.2678    -2787.093 
   16350    292.14904   -6386.3859   -5211.0411   -6056.4191   -2826.7384 
   16400    298.67603   -6435.5204   -5233.9169   -6460.6672   -4101.9544 
   16450    305.16949   -6455.4975   -5227.7701    -6242.042   -3391.4782 
   16500    296.47004   -6403.9364   -5211.2077   -6225.1222   -3390.2833 
   16550    314.69735   -6448.8363   -5182.7774   -6285.6584   -3687.7658 
   16600    309.92654   -6444.3632   -5197.4977   -6297.5333   -3678.2514 
   16650    303.88588   -6429.1796   -5206.6163   -6238.8739   -3451.6183 
   16700    308.34056   -6442.5761   -5202.0912   -6554.4463   -4521.9463 
   16750    310.56845      -6458.9   -5209.4521   -6536.9731   -4438.9071 
   16800    295.51628   -6428.1849   -5239.2934   -6201.4446   -3217.1992 
   16850    300.53458   -6456.1365   -5247.0559   -6348.9717   -3684.5383 
   16900    302.11299   -6441.2239   -5225.7932   -6148.7829    -3086.253 
   16950    305.58522   -6402.1623   -5172.7624   -5976.9675   -2689.0659 
   17000    307.52499   -6380.6595   -5143.4557   -6094.2391   -3179.1884 
   17050    304.50952   -6345.4986   -5120.4264   -6146.3352   -3430.3893 
   17100    318.04945   -6383.6894   -5104.1447   -5664.4183   -1873.4186 
   17150    303.14619   -6370.5992   -5151.0118   -5937.1269   -2628.5778 
   17200    307.59127   -6380.2186   -5142.7482   -6067.7779   -3093.0742 
   17250    301.69511    -6330.967   -5117.2174   -5710.2206   -1982.8585 
   17300    306.76458   -6308.5664   -5074.4219   -5732.0004   -2198.7825 
   17350    308.23809   -6270.6194   -5030.5468   -5475.6961    -1488.471 
   17400    306.68448   -6236.2145   -5002.3921   -5584.1905   -1945.3923 
   17450    310.82356   -6250.1386   -4999.6644   -5418.7396   -1401.2856 
   17500    300.35479   -6240.1584    -5031.801   -5293.2997   -874.38775 
   17550    305.94146   -6293.3378   -5062.5047   -5850.5855   -2635.1504 
   17600    305.35084   -6325.8435   -5097.3865    -5987.252   -2975.4937 
   17650    307.39246   -6357.0004   -5120.3299   -6092.2299   -3249.7971 
   17700    306.61463   -6393.0414   -5159.5001   -6115.8875   -3197.9267 
   17750    295.87418   -6392.0586   -5201.7272   -5994.4591   -2650.7027 
   17800    303.84354   -6415.7327   -5193.3398    -6618.139   -4764.1818 
   17850    306.46618   -6382.1122   -5149.1681   -6104.2036   -3193.4063 
   17900    304.83571   -6314.9101   -5088.5256   -5853.2459   -2557.0389 
   17950    313.03835   -6283.5354   -5024.1509   -5558.2604   -1785.9322 
   18000     308.2781   -6259.6927   -5019.4591   -5295.0912   -921.64644 
   18050    298.46736   -6241.7594   -5040.9953   -5438.4978   -1329.1515 
   18100    307.45582   -6259.5142   -5022.5887   -5714.9246   -2315.0026 
   18150     307.2226   -6215.4058   -4979.4185   -5525.0079    -1824.318 
   18200    302.69682   -6154.7929   -4937.0134   -5091.2031   -515.57296 
   18250    315.38475    -6207.396   -4938.5716   -5485.5249   -1828.8787 
   18300    312.35757   -6225.4882   -4968.8425   -5486.5989   -1731.2514 
   18350    299.38979   -6220.5014   -5016.0264     -5556.59   -1807.5133 
   18400    306.97836   -6279.8009   -5044.7963   -5638.9166   -1986.5938 
   18450     315.5788   -6357.1344   -5087.5294   -5853.2772   -2560.4744 
   18500    300.95931   -6398.2145   -5187.4251   -6256.3215   -3574.1296 
   18550    300.88477   -6478.2368   -5267.7473   -5997.1273   -2438.8692 
   18600    285.26609   -6445.4703   -5297.8163   -6426.8774   -3775.3055 
   18650    295.66587   -6427.7303    -5238.237   -6344.2397   -3698.2037 
   18700    310.01728   -6389.1754   -5141.9449   -5871.3967   -2439.1091 
   18750    309.01556   -6349.8695    -5106.669   -6072.4547   -3229.3524 
   18800    303.98667   -6332.4448    -5109.476   -5626.5645    -1729.018 
   18850    305.42888   -6325.2831   -5096.5122   -5887.5861   -2645.1587 
   18900    308.38547   -6350.5501   -5109.8845   -6197.4156   -3636.4394 
   18950     300.9438   -6378.8904   -5168.1634   -6046.7042   -2937.6266 
   19000    298.75903   -6401.8268   -5199.8894   -6326.6587   -3767.6423 
   19050    295.03216   -6395.1739   -5208.2301   -6243.4326   -3461.4654 
   19100    313.66224   -6440.1244   -5178.2298   -6342.2867   -3892.3228 
   19150    300.48006   -6406.5459   -5197.6846   -6244.3408   -3499.7637 
   19200    309.50184   -6461.1414   -5215.9845   -6417.8421   -4018.7192 
   19250    305.43464   -6490.5156   -5261.7215   -5781.7837   -1738.9614 
   19300    293.23143   -6463.7195   -5284.0201   -6631.4174   -4505.3684 
   19350    290.51629   -6415.7621    -5246.986   -6407.4511   -3880.3128 
   19400    312.27504   -6441.9603   -5185.6466   -6187.6114   -3350.3266 
   19450    305.99704   -6396.6182   -5165.5615   -5813.3515   -2166.0522 
   19500    304.21084   -6382.3101   -5158.4395   -6176.1228   -3402.8853 
   19550    309.27563    -6376.208   -5131.9612   -6248.1205   -3732.1651 
   19600    301.89782   -6287.1155   -5072.5504   -5889.5542   -2731.8621 
   19650    309.32678   -6275.6414   -5031.1889   -5522.1308   -1641.5904 
   19700    315.64327   -6290.1046   -5020.2402    -5588.223   -1899.1964 
   19750     299.7999   -6258.3239   -5052.1989   -5382.8676   -1105.6755 
   19800    306.09401   -6305.6125   -5074.1657   -5804.1218   -2440.7956 
   19850    300.17189   -6305.1683   -5097.5468   -5991.7585   -2990.0264 
   19900    304.22774   -6309.3527   -5085.4141   -6022.2334   -3132.4959 
   19950    320.10482   -6360.3881   -5072.5745   -6168.6641   -3665.0569 
   20000    301.44371   -6358.2493   -5145.5112   -5971.1385   -2760.6968 
   20050    295.71096   -6398.7886   -5209.1138    -6224.717   -3395.9299 
   20100    317.80731   -6476.1735   -5197.6029   -6232.0447   -3458.9216 
   20150    304.53902   -6445.7896   -5220.5987   -6528.5819   -4373.5775 
   20200    308.15812   -6454.9605   -5215.2096   -6899.6365   -5632.3137 
   20250    310.19188   -6458.9783   -5211.0454   -6849.8297    -5479.696 
   20300    298.09954   -6399.5687   -5200.2845   -6186.1225   -3296.4025 
   20350    309.00435   -6385.2446   -5142.0892   -5851.5279   -2372.1903 
   20400    317.73311   -6363.2113   -5084.9392   -6140.8671   -3530.7657 
   20450    312.38367   -6321.0033   -5064.2525   -5926.0963   -2881.7959 
   20500    294.98124   -6281.8145   -5095.0755   -5438.8649   -1149.5481 
   20550    310.44718   -6361.0679   -5112.1079   -5847.5067   -2458.9946 
   20600    310.92657   -6393.6032   -5142.7145   -6222.2091   -3609.5672 
   20650    302.86867   -6419.4182   -5200.9473   -6319.5601   -3740.3692 
   20700    301.11979   -6465.2991   -5253.8641    -6638.342   -4629.3571 
   20750    299.35693   -6497.9524   -5293.6096   -6174.6071   -2945.8415 
   20800    294.53824   -6466.6287    -5281.672    -6381.718   -3678.2862 
   20850    310.14439   -6460.9325   -5213.1906   -6448.5475   -4130.7329 
   20900    307.93064   -6430.7945   -5191.9587   -6358.7223   -3901.3733 
   20950    295.16722   -6397.0848   -5209.5976   -6356.6485   -3835.4594 
   21000    302.66277   -6378.2843   -5160.6417   -6002.0013   -2813.3017 
   21050    304.75183    -6341.488   -5115.4409   -5639.4126    -1752.034 
   21100    306.19406   -6321.1452   -5089.2959   -5583.4012   -1652.1679 
   21150    303.51829   -6314.7327   -5093.6483   -5958.3443   -2891.3329 
   21200    301.89598   -6306.4927    -5091.935    -5486.623   -1319.7406 
   21250    312.83175   -6378.7788   -5120.2254   -5904.1938   -2621.3994 
   21300    304.97808     -6386.32   -5159.3627   -5774.6438   -2057.3505 
   21350    300.77315   -6366.8471   -5156.8067   -6339.2224   -3953.7103 
   21400     300.0071   -6322.1894   -5115.2309   -5582.0295   -1560.8608 
   21450    297.17393   -6247.6249   -5052.0645   -5099.7169   -159.33815 
   21500    304.56844   -6207.4046   -4982.0953   -5137.4947   -519.61782 
   21550    314.57632        -6238   -4972.4281     -5352.12   -1269.5973 
   21600    303.43373   -6253.4007   -5032.6565   -5294.6304   -875.97724 
   21650    303.18717   -6282.2888   -5062.5365    -5528.489   -1558.0317 
   21700    299.98024   -6287.2569   -5080.4064   -5157.0543   -256.29205 
   21750    308.85612    -6322.877   -5080.3179   -5635.1358   -1855.1759 
   21800    313.71734   -6333.1831   -5071.0669   -5747.0536   -2260.3349 
   21850    302.63543   -6291.6669   -5074.1343   -5415.8518   -1142.6203 
   21900    295.16178   -6257.8054     -5070.34   -5512.3511   -1477.9774 
   21950    309.37552   -6265.3458   -5020.6972    -5310.903   -970.37779 
   22000    320.97312   -6266.2079   -4974.9009     -5361.39   -1292.3254 
   22050    309.56698   -6240.1807   -4994.7618   -5347.1289     -1178.23 
   22100    306.19727   -6248.3538   -5016.4915   -5339.6253   -1080.4806 
   22150    300.64525   -6248.1765   -5038.6506   -5380.8501   -1144.2317 
   22200     301.0594    -6236.588   -5025.3959   -5320.1419   -985.55868 
   22250    300.45742   -6221.6754   -5012.9052   -5126.1492   -378.66033 
   22300    308.44168   -6270.2511   -5029.3594    -5336.427   -1026.7591 
   22350    298.62588   -6269.8442   -5068.4424   -5711.0366   -2148.6786 
   22400    305.01962   -6296.1143   -5068.9899   -5842.1863   -2585.3808 
   22450    315.83354   -6323.7383   -5053.1084   -5704.5567   -2178.2844 
   22500    311.93765   -6333.0485   -5078.0921    -5872.663   -2656.8517 
   22550    311.43041    -6378.171   -5125.2553    -6250.456   -3762.3973 
   22600    304.96487   -6429.6288   -5202.7246   -6400.8249   -4006.1557 
   22650     299.3099     -6470.47   -5266.3163   -6808.6563   -5157.2095 
   22700    288.01823   -6436.2601    -5277.534   -6501.9389   -4094.1121 
   22750    308.94725   -6467.6328   -5224.7072   -6444.4152    -4078.407 
   22800    307.56164   -6456.5776   -5219.2264   -6298.4782   -3608.7554 
   22850    307.07898   -6488.2157   -5252.8062   -6575.6074   -4423.1254 
   22900    298.68037   -6512.4464   -5310.8254   -6304.2022   -3321.6103 
   22950    293.73998   -6485.6048   -5303.8595    -6900.836   -5339.9008 
   23000    311.58892   -6481.1853   -5227.6319    -6446.449   -4075.4277 
   23050    310.82699   -6440.3697   -5189.8816   -5942.2258   -2515.6558 
   23100    301.32796   -6415.3708   -5203.0983   -6233.1427   -3444.2178 
   23150    305.02737   -6463.8837   -5236.7281    -6522.251   -4298.4757 
   23200    307.01256   -6502.0687   -5266.9265   -6639.3854   -4589.1685 
   23250    302.53784   -6505.5314   -5288.3914   -6769.7664   -4953.3574 
   23300    307.68297   -6521.9711   -5284.1318   -6144.8392   -2877.9962 
   23350    300.36718   -6471.5256   -5263.1184   -6169.8975   -3032.0485 
   23400    301.03863   -6412.8889   -5201.7804   -6323.1995   -3749.7525 
   23450    313.61653   -6385.0189   -5123.3083   -5671.8402   -1834.1571 
   23500    304.54144    -6336.811   -5111.6103   -5827.3046   -2393.1076 
   23550    306.80065   -6351.4963   -5117.2066   -6168.7541   -3516.1188 
   23600    297.27172   -6318.0742   -5122.1204   -5638.1505   -1725.4789 
   23650    297.25646   -6311.5217   -5115.6293   -5774.5471   -2203.2607 
   23700    303.25535   -6335.0408   -5115.0142   -5845.8644   -2443.7853 
   23750    300.52679   -6361.5161   -5152.4668   -6168.2312    -3396.469 
   23800     294.3838   -6360.6197   -5176.2843   -6041.4666   -2892.9592 
   23850    307.13544   -6421.0534   -5185.4168   -6155.1984   -3242.7137 
   23900     297.2403   -6415.0832   -5219.2557   -6367.6755   -3840.0364 
   23950    299.69478   -6424.3125   -5218.6104   -6324.5566   -3698.0147 
   24000    312.36771   -6452.6828   -5195.9963   -6674.2926   -4943.0629 
   24050    301.80817   -6407.8413   -5193.6368    -6139.994   -3164.3883 
   24100    305.01255   -6409.3823   -5182.2863   -6154.0166   -3249.2295 
   24150    302.42813   -6391.2166    -5174.518   -6087.1569   -3051.6425 
   24200    299.04908   -6358.2102   -5155.1059   -6110.4079   -3194.2975 
   24250    300.10093   -6344.3283   -5136.9923   -5773.9067   -2129.6867 
   24300    304.74739   -6340.4201   -5114.3909   -5716.1567   -2012.1585 
   24350    312.80668   -6367.1674   -5108.7149   -6182.5326    -3590.585 
   24400    311.61312   -6348.2547   -5094.6039   -5926.9819   -2783.2693 
   24450    318.04457   -6378.9053   -5099.3802   -6201.9791   -3686.8224 
   24500    311.68349   -6408.5216   -5154.5877   -6170.1477   -3395.7854 
   24550    306.63799   -6466.1997   -5232.5644   -6576.0578   -4492.3149 
   24600    300.20658   -6512.4455   -5304.6844   -6727.1854   -4756.4973 
   24650    289.11868   -6490.6563   -5327.5029   -6673.3935   -4500.3305 
   24700    305.22034   -6489.6294   -5261.6975   -6213.6292   -3183.0282 
   24750    312.74291   -6455.3458   -5197.1499   -6416.3571   -4076.7324 
   24800    307.61173   -6427.4462   -5189.8935   -6093.3778   -3021.0318 
   24850    306.71271   -6458.2397   -5224.3038   -6525.3219   -4350.2876 
   24900    309.48405   -6504.1317   -5259.0464   -6810.9608   -5189.2241 
   24950    292.82016   -6484.4881   -5306.4433   -6618.8556   -4388.3875 
   25000    297.70003   -6515.5831   -5317.9062   -6802.3239   -4963.5317 
   25050    305.27747   -6518.4329   -5290.2711   -6585.6431   -4331.4087 
   25100    303.28695   -6478.0688   -5257.9151   -6189.2573   -3114.1817 
   25150    313.52541   -6475.2044   -5213.8604   -6101.1432   -2966.8579 
   25200    310.82848   -6456.6038   -5206.1098   -6493.2794    -4303.982 
   25250    290.66853   -6408.0881   -5238.6995   -6283.0556   -3492.0726 
   25300    306.61105   -6452.1793   -5218.6524   -6324.9284   -3699.1179 
   25350    317.59901   -6472.2976    -5194.565   -6826.4999   -5456.7932 
   25400    291.69613   -6376.2733   -5202.7506   -6326.5395   -3757.6766 
   25450     310.5061   -6392.0256   -5142.8286   -6075.9194   -3120.0287 
   25500    309.52345   -6380.9961   -5135.7523   -6025.3228   -2974.5072 
   25550    298.25075   -6379.2501   -5179.3575   -6160.1584   -3279.5594 
   25600    310.66505   -6464.7963   -5214.9598   -6638.7383    -4760.769 
   25650    305.22821   -6489.1144   -5261.1508   -6787.8509   -5104.9134 
   25700    309.93876   -6545.0201   -5298.1055   -5781.7155    -1617.074 
   25750    295.90684   -6516.1052   -5325.6424   -6930.9329   -5367.7008 
   25800    295.73352   -6479.7387   -5289.9732   -6790.1319   -5016.1658 
   25850    307.63337   -6453.9138    -5216.274   -6096.5212   -2943.3323 
   25900    302.68519    -6391.368   -5173.6352   -5899.7061   -2427.8042 
   25950    306.14798   -6364.5665   -5132.9026   -5622.8043   -1638.1122 
   26000    308.70452   -6331.7736   -5089.8244   -5563.8621   -1585.0668 
   26050    315.55013   -6308.8228   -5039.3331    -5497.546   -1532.1526 
   26100    319.27921   -6273.0909   -4988.5987    -5209.661   -739.17854 
   26150    316.65509    -6301.677    -5027.742   -5827.2755   -2673.4456 
   26200    302.27846   -6327.0264   -5110.9299   -5749.0228   -2133.6274 
   26250    290.49806   -6306.4051   -5137.7024   -5784.2075   -2161.7557 
   26300    303.46172   -6301.6159    -5080.759   -5377.9306   -993.66947 
   26350    312.09568   -6264.5607   -5008.9686   -5276.6284   -894.98933 
   26400     309.1534   -6212.4908   -4968.7358   -5149.7983   -605.42902 
   26450    298.88867   -6137.1185   -4934.6595   -5191.1044   -857.48937 
   26500    311.11641   -6148.8888   -4897.2363   -4811.8316    285.57276 
   26550    326.97336   -6238.5162   -4923.0697   -5231.9389   -1032.7835 
   26600    296.47641   -6201.8359   -5009.0817   -5365.7612   -1192.6495 
   26650    292.46054   -6231.7368   -5055.1388   -5292.9953   -795.33433 
   26700    312.63067    -6311.211   -5053.4666   -5759.2143   -2359.8485 
   26750    304.75656   -6268.2239   -5042.1578   -5381.5665   -1134.9004 
   26800    303.05601   -6231.6555   -5012.4308   -5198.0066   -620.52009 
   26850    303.30624   -6185.5861   -4965.3548   -5158.5973   -646.15608 
   26900    303.18561    -6161.195    -4941.449   -5278.2284   -1126.1084 
   26950    303.62243    -6162.178   -4940.6746   -5169.9164   -766.52875 
   27000    298.93057   -6154.6578   -4952.0302   -5384.9659   -1447.6313 
   27050    308.00806   -6192.0657   -4952.9185   -5193.0388   -802.90393 
   27100    311.78335   -6205.4912   -4951.1556   -5427.0966   -1591.4307 
   27150    310.88766   -6199.0233   -4948.2912   -5387.3984   -1468.2678 
   27200    311.12723   -6249.0895   -4997.3935    -5268.418    -906.2399 
   27250    306.65489   -6285.0095   -5051.3062   -5697.2843   -2159.9936 
   27300    302.19974     -6308.26   -5092.4802   -5891.7494   -2672.5618 
   27350    308.26263   -6349.2782   -5109.1068   -6171.1438    -3551.193 
   27400    299.39779    -6340.327   -5135.8198   -5920.9476   -2625.2765 
   27450    303.26167    -6343.683    -5123.631   -6050.1849   -3098.1709 
   27500     318.8285    -6380.362   -5097.6831   -5896.3309   -2670.4841 
   27550    311.08011   -6399.5871   -5148.0807    -6377.705   -4111.5643 
   27600     298.9156   -6436.8708   -5234.3035   -6351.9194   -3737.0357 
   27650    284.93753   -6428.9502   -5282.6181   -6520.9452   -4140.6646 
   27700     303.3476   -6440.9784   -5220.5807   -6299.8386    -3608.776 
   27750    323.99818   -6447.5214   -5144.0444   -6111.5612   -3235.1409 
   27800    315.42121   -6414.9348   -5145.9638   -5997.6362   -2847.7853 
   27850    311.85257   -6461.5591    -5206.945   -6462.1478   -4197.0925 
   27900    289.30543   -6448.5626   -5284.6579   -6215.4077   -3112.2008 
   27950    301.17072   -6496.7007   -5285.0608   -6715.9294   -4784.4765 
   28000    308.09763   -6503.4561   -5263.9485   -6687.0597   -4758.5375 
   28050    299.55282    -6463.254   -5258.1231   -6533.2103   -4263.5813 
   28100    316.45411   -6500.9759   -5227.8494   -6661.3114    -4793.148 
   28150    302.10672    -6480.975   -5265.5695   -6428.1483   -3887.3809 
   28200    305.19198   -6533.4337   -5305.6159   -6920.9538   -5401.2967 
   28250    304.20329   -6540.0896   -5316.2493   -6678.0484   -4553.5246 
   28300    310.69465   -6539.1262   -5289.1706   -6564.3358   -4263.8424 
   28350    312.00923   -6532.1509   -5276.9066   -6815.6045   -5145.0316 
   28400    301.52169   -6518.5459   -5305.4941        -6447   -3816.9179 
   28450    307.19114   -6549.0475   -5313.1869   -6578.9705   -4232.4724 
   28500    299.94112    -6530.099   -5323.4059   -6601.9807   -4275.2429 
   28550    311.02099   -6542.1025    -5290.834   -6381.5632    -3647.133 
   28600    301.99373   -6471.1247   -5256.1737   -6427.3504   -3916.1299 
   28650    321.62197   -6505.0511   -5211.1338   -6246.2771   -3461.2672 
   28700    306.21243   -6470.9291   -5239.0059   -6436.4066   -4003.8164 
   28750    296.54471    -6455.103   -5262.0739   -6174.9288   -3052.3646 
   28800    306.52612   -6467.0249   -5233.8396   -6228.1395   -3324.6969 
   28850    299.63222   -6419.6005   -5214.1502     -6056.53    -2816.713 
   28900    299.52314   -6362.1275    -5157.116   -6220.6261   -3556.1191 
   28950    310.69654   -6331.3468   -5081.3836   -5600.7807   -1736.7375 
   29000    307.62912   -6273.9276   -5036.3049   -5456.0827   -1403.6347 
   29050    310.97782   -6298.9507   -5047.8559   -5534.6765   -1627.8099 
   29100    314.16307   -6367.4581   -5103.5487   -6066.0803   -3218.4714 
   29150    299.66817    -6383.611    -5178.016   -6071.9656     -2989.15 
   29200     294.4669   -6410.5698      -5225.9   -6459.7882   -4125.8217 
   29250    292.87743   -6407.5185   -5229.2433   -6315.7214   -3632.9185 
   29300    299.12496   -6367.0179   -5163.6083   -6108.5214   -3159.5593 
   29350    307.41329    -6318.667   -5081.9126   -5524.1848   -1478.8508 
   29400     306.2234   -6247.2353   -5015.2679   -5361.0754   -1156.2962 
   29450     312.3812   -6213.2562   -4956.5155    -5162.079   -687.35437 
   29500    312.06041   -6210.1188   -4954.6686   -5221.3085    -891.5791 
   29550    305.14952   -6242.1896   -5014.5425   -5377.4463   -1213.4619 
   29600    297.74891   -6293.1676   -5095.2939   -5533.6859   -1465.8762 
   29650    302.65084   -6341.6652   -5124.0707   -6170.1393    -3497.799 
   29700    301.51712   -6334.3868   -5121.3532   -5681.8074   -1874.0222 
   29750    307.01234   -6387.0632   -5151.9219   -5947.0813   -2658.8195 
   29800    301.12174   -6414.0441   -5202.6012   -6394.6423   -3985.8953 
   29850    301.08947   -6433.2133   -5221.9003    -6281.544   -3543.1909 
   29900    303.06138   -6424.6443   -5205.3981   -6109.9955   -3024.7538 
   29950    307.04868   -6382.2756    -5146.988   -5980.8174   -2788.1225 
   30000    302.97095   -6289.1623   -5070.2799   -5215.5137   -485.62641 
   30050    309.40829   -6241.9882   -4997.2077   -5398.1622   -1340.6941 
   30100    297.75276   -6141.1193   -4943.2302    -4879.373    213.52287 
   30150    322.57972   -6208.4236   -4910.6531   -4939.6145   -96.839909 
   30200    303.94936    -6193.211   -4970.3924   -5064.6772   -315.26531 
   30250     300.0697   -6254.2576   -5047.0472   -5558.1688   -1709.0663 
   30300    307.80504   -6325.2908   -5086.9603   -5507.3667   -1405.7368 
   30350    310.91041   -6355.3964   -5104.5727    -6076.978   -3251.4864 
   30400    295.15438   -6315.0518   -5127.6163    -5828.606    -2343.939 
   30450    310.51195   -6371.9508   -5122.7302   -6064.0249   -3147.4604 
   30500    304.62438   -6375.5458   -5150.0115   -6016.6013   -2897.6654 
   30550    309.28078   -6429.1012   -5184.8337   -6761.5396   -5272.1208 
   30600    304.84425   -6464.1035   -5237.6847   -6537.0403    -4344.729 
   30650     303.4588   -6490.7382   -5269.8931   -6669.4043   -4679.6248 
   30700    299.48379   -6502.9118   -5298.0585   -6781.4386   -4960.0619 
   30750     299.4104    -6508.193    -5303.635   -6853.8503   -5183.5427 
   30800    301.12331   -6489.4063   -5277.9571    -6549.599   -4252.0612 
   30850    312.08714   -6480.3927   -5224.8349     -6648.56   -4760.5902 
   30900    292.55167   -6398.9163   -5221.9517   -6106.5006   -2957.7164 
   30950    297.43282    -6379.207    -5182.605   -5725.8935   -1816.6244 
   31000    302.99207   -6339.0193    -5120.052   -5673.7174   -1851.3226 
   31050    314.29808   -6323.3702   -5058.9176   -5519.0883   -1538.6986 
   31100    314.28509   -6277.6638   -5013.2634   -5466.0546   -1514.0236 
   31150    302.35571   -6188.5775   -4972.1702   -5175.4651   -679.76854 
   31200    308.09667   -6167.9437     -4928.44   -4921.2008    24.206288 
   31250    304.54532   -6156.1382   -4930.9219   -5050.7214   -400.58013 
   31300    303.09277   -6171.4714   -4952.0989   -5139.0124   -624.99357 
   31350    305.07725   -6182.9976   -4955.6413   -5269.1519    -1048.303 
   31400    302.03312   -6174.3826   -4959.2731   -5268.8624   -1035.1912 
   31450    319.05281   -6253.7999   -4970.2185   -5465.0876   -1654.7219 
   31500    303.65035   -6269.0859   -5047.4702   -5648.6504   -2010.2006 
   31550     297.2535   -6290.7785    -5094.898   -5534.0349   -1468.3669 
   31600    302.98088    -6309.575   -5090.6526   -5641.0372   -1840.3523 
   31650    301.18185   -6248.0802   -5036.3954   -5530.8245   -1653.2505 
   31700    306.84243   -6194.3821   -4959.9244   -5452.1089   -1645.7454 
   31750    318.12306   -6194.5068   -4914.6659   -5184.2284   -901.35138 
   31800    309.04248   -6178.0485   -4934.7397   -5266.8385   -1110.4575 
   31850     304.8415   -6199.5808   -4973.1729   -5738.0369   -2557.5192 
   31900    299.49982   -6216.9749   -5012.0572   -5625.6347   -2051.6537 
   31950    299.51122   -6236.2571   -5031.2935   -5446.5407   -1388.4856 
   32000    297.49865   -6223.9796   -5027.1128   -5155.0395   -427.75555 
   32050    313.08365   -6268.7261   -5009.1593   -5780.2478   -2578.3323 
   32100    313.97171   -6261.6635   -4998.5239   -5504.5586   -1692.0567 
   32150    306.39268   -6243.1512   -5010.5028   -5745.9719   -2459.2298 
   32200    317.61737   -6300.4002   -5022.5937   -5846.3738   -2754.5202 
   32250    301.89031   -6279.2266   -5064.6917    -5674.715   -2039.7696 
   32300    293.89426   -6293.4183   -5111.0523   -5826.3264   -2391.7023 
   32350    298.67699   -6321.1677   -5119.5603     -5746.94   -2097.8052 
   32400    299.35726   -6296.6239   -5092.2797   -5620.7084   -1766.9368 
   32450    311.07039   -6284.8183   -5033.3511   -5663.8276     -2108.16 
   32500    315.04322   -6254.4001   -4986.9497    -5650.578   -2219.0116 
   32550    299.95756    -6206.679   -4999.9197   -5352.7618   -1179.8178 
   32600    310.60618   -6281.1108    -5031.511   -5636.9254   -2024.3583 
   32650    317.19659   -6348.3531   -5072.2395   -6033.9336    -3215.671 
   32700    311.69717   -6394.4305   -5140.4416   -6032.9161   -2984.2176 
   32750    294.37324   -6399.0917   -5214.7987   -6357.3873   -3820.5384 
   32800    298.02255   -6416.5714   -5217.5969   -6073.2532   -2861.1068 
   32850    297.62684   -6404.9612   -5207.5787   -6057.0918    -2840.565 
   32900    306.33831   -6410.4636   -5178.0339   -6266.7584   -3640.4296 
   32950    305.09511   -6388.3399   -5160.9118   -5956.0299   -2658.6814 
   33000    301.66354   -6341.9788   -5128.3562   -6187.7276   -3542.2803 
   33050    322.57283   -6396.5882   -5098.8454   -6353.9313   -4196.7016 
   33100    302.62154   -6329.1654   -5111.6887   -5701.0407   -1970.6496 
   33150    306.22333    -6347.329    -5115.362   -5992.3621   -2932.4751 
   33200    297.90253   -6310.3434   -5111.8517   -5777.3695   -2225.3293 
   33250    300.76405    -6275.146   -5065.1422   -5557.5384   -1646.4531 
   33300    320.54302    -6275.104   -4985.5274    -5681.623   -2327.5741 
   33350    307.68722   -6190.0979   -4952.2415   -5184.8118   -777.65836 
   33400    306.55554   -6183.4743   -4950.1707   -5509.3991   -1869.9238 
   33450    300.44322   -6167.6385   -4958.9254   -5212.1872   -846.84571 
   33500    307.24289   -6201.6908   -4965.6219   -5456.1144   -1640.0873 
   33550    298.90162   -6184.3882   -4981.8771   -5338.2103   -1191.4914 
   33600    300.74663   -6226.5943   -5016.6605   -5146.2951   -433.46648 
   33650    302.78746   -6276.5936   -5058.4494   -5692.3748   -2119.6922 
   33700    294.69069   -6295.1611    -5109.591    -5784.559   -2256.9287 
   33750    289.73326   -6285.5364   -5119.9106   -5748.0984   -2100.5072 
   33800    312.73279   -6314.9963    -5056.841   -5716.3972   -2205.3952 
   33850    300.54974   -6257.7943   -5048.6527   -5603.0715   -1853.8417 
   33900    304.68544   -6278.3452   -5052.5652   -5527.3907   -1587.7008 
   33950    318.11944   -6322.1404   -5042.3141      -5821.4   -2605.0736 
   34000    307.21986   -6308.8672   -5072.8909   -6249.6944   -3934.9442 
   34050    299.38087   -6304.0933   -5099.6541   -6032.7523   -3120.0534 
   34100    307.26269   -6364.1606   -5128.0121   -5996.2668   -2903.2325 
   34150    295.51862   -6353.6818   -5164.7809   -6173.0573   -3371.4312 
   34200    301.67128   -6368.4811   -5154.8274   -6110.7423   -3196.3469 
   34250    303.51526   -6387.6998   -5166.6276   -6055.7982   -2973.1702 
   34300    312.47604   -6474.1197   -5216.9974   -6435.7297   -4075.1444 
   34350     304.0991   -6524.0042   -5300.5832   -6938.5729    -5477.039 
   34400    296.02565    -6552.048   -5361.1072   -6389.2698   -3437.9256 
   34450    292.56901   -6541.6715   -5364.6371   -6744.9207   -4615.3322 
   34500    304.92272    -6525.767   -5299.0324   -6750.2694   -4852.5832 
   34550    306.44924   -6470.2991   -5237.4232   -6440.5487   -4022.9589 
   34600    307.04665   -6442.6122   -5207.3329   -6537.9202   -4449.1603 
   34650    310.07887   -6452.4929   -5205.0146   -6165.3032   -3210.9713 
   34700    316.29311   -6502.2357   -5229.7569    -6668.817   -4811.8666 
   34750    300.25219   -6491.4764   -5283.5319   -6752.1796   -4910.8005 
   34800    294.45878   -6501.3054   -5316.6683   -6835.2456   -5077.7531 
   34850    308.51998   -6546.6224   -5305.4156   -6792.1732   -4971.3556 
   34900    298.69312    -6510.803   -5309.1307   -6603.4329   -4327.8315 
   34950    311.05996   -6537.5807   -5286.1554   -7085.3585   -6016.0971 
   35000    310.04233   -6532.5588   -5285.2275   -6684.3508   -4678.3278 
   35050    298.52837   -6506.9114   -5305.9019   -6389.1425   -3622.0927 
   35100    307.23078   -6513.1442    -5277.124   -6791.1872   -5062.6588 
   35150    302.99896   -6467.3011    -5248.306   -6264.7093   -3398.6052 
   35200    311.40707   -6486.7405   -5233.9187   -6456.6647    -4088.565 
   35250    303.07053   -6483.7147   -5264.4317   -6601.0522   -4469.3339 
   35300     298.0528   -6471.6433   -5272.5471   -6403.1421   -3780.4347 
   35350    308.45525   -6479.7694   -5238.8231   -6612.3947   -4592.8892 
   35400    303.65078   -6473.7382   -5252.1208   -6280.2437   -3437.7929 
   35450        310.1   -6553.6131   -5306.0498   -6982.8144   -5606.6928 
   35500    285.46908   -6538.6254   -5390.1547    -7253.894   -6231.8905 
   35550    293.34287   -6560.0423   -5379.8946   -6690.2702   -4381.5771 
   35600    307.82727    -6541.467   -5303.0471   -6913.1318   -5383.7313 
   35650    309.96177   -6505.2712    -5258.264   -6798.5646   -5150.3903 
   35700    301.25357   -6455.1728   -5243.1995   -5951.4199   -2368.1165 
   35750    305.09336   -6431.4302   -5204.0091    -6250.477    -3499.134 
   35800    317.81461   -6455.1965   -5176.5966   -5869.1989   -2315.8937 
   35850    297.46149   -6412.9394   -5216.2221   -6111.3779   -2993.1832 
   35900    305.97083   -6431.1385   -5200.1872   -6376.7657   -3934.1921 
   35950    299.84345    -6351.885   -5145.5849   -5921.0544   -2592.9815 
   36000    309.71528   -6308.4457   -5062.4302   -5682.6859   -2073.9841 
   36050    313.60343   -6282.0831   -5020.4252    -5553.461    -1782.342 
   36100    321.37211   -6315.2468   -5022.3346   -5919.9536   -3001.4193 
   36150    292.30805   -6245.7165    -5069.732   -5391.2761   -1075.1651 
   36200    294.55932   -6246.2773   -5061.2357   -5193.8199   -443.32935 
   36250    311.09739   -6265.5733   -5013.9974   -5153.9234   -467.87873 
   36300    298.56732   -6191.6743   -4990.5081   -5159.2243   -564.14588 
   36350    293.13434   -6136.1006   -4956.7918   -5370.2809   -1382.6071 
   36400     316.3027   -6172.8024    -4900.285   -5174.1343   -915.68538 
   36450    305.78552   -6172.3432   -4942.1375   -5187.4856   -820.38446 
   36500     296.9746   -6231.9713   -5037.2128   -5406.8783   -1236.0714 
   36550    303.99595   -6326.5027   -5103.4966   -6227.5028   -3758.4031 
   36600    307.56118   -6397.9992   -5160.6498   -5882.0692    -2412.251 
   36650    305.43594   -6423.7419   -5194.9426   -6364.2351   -3909.8294 
   36700    304.90639   -6421.7723   -5195.1034   -6271.5901   -3599.5096 
   36750    301.42076    -6406.047   -5193.4012   -6035.8963   -2817.0985 
   36800    300.15359   -6392.0612   -5184.5133     -5613.06   -1432.9558 
   36850    309.15639    -6416.525   -5172.7579   -6107.4317   -3125.3216 
   36900    315.75911    -6443.785   -5173.4545   -6378.0286   -4027.8028 
   36950     301.9408   -6449.3671   -5234.6291   -6332.7911   -3671.9864 
   37000    290.01893   -6473.6573   -5306.8822   -6687.7957   -4617.4388 
   37050    296.64945   -6481.5103   -5288.0599   -6719.4277   -4786.1458 
   37100    311.82178   -6489.0172    -5234.527   -6261.9061   -3435.3058 
   37150    298.11331   -6396.5057   -5197.1661   -5574.9841   -1263.3315 
   37200    310.09267   -6376.7137   -5129.1799   -6142.9048   -3389.6493 
   37250    310.89805   -6334.1085   -5083.3346   -5821.3422    -2467.718 
   37300    293.58254    -6271.341   -5090.2291   -5632.9478   -1814.7195 
   37350    303.26577   -6319.3872   -5099.3187   -5861.3155   -2547.9318 
   37400    314.28994   -6371.6922   -5107.2723    -6263.222   -3865.2144 
   37450    306.58242   -6365.3146   -5131.9029   -5881.2978    -2505.794 
   37500    293.67108   -6351.8789   -5170.4108   -5918.7832   -2502.3755 
   37550    299.55078   -6346.3108    -5141.188   -5544.9533   -1350.0929 
   37600    318.39592   -6387.8714   -5106.9328   -5622.5326   -1724.0403 
   37650    302.58525   -6375.2022   -5157.8715   -6213.8044   -3530.7829 
   37700    293.42156    -6391.393   -5210.9287   -6509.6859   -4342.7279 
   37750    297.45953   -6421.4852   -5224.7757   -6719.4018   -4997.6657 
   37800    292.48147   -6364.4852    -5187.803   -6156.0862   -3237.7037 
   37850    302.84897    -6304.129   -5085.7373   -5661.1929   -1924.1836 
   37900    320.39439    -6283.614   -4994.6353   -5736.4706   -2480.5166 
   37950    312.87248   -6237.6924   -4978.9752   -5186.3445   -693.39261 
   38000    311.45667   -6249.7342   -4996.7129   -5591.9334   -1990.2726 
   38050    304.48738   -6260.0511   -5035.0679   -5488.1161    -1514.883 
   38100    308.31368   -6301.7281   -5061.3514    -5687.632   -2094.1302 
   38150    302.96437   -6307.3945   -5088.5386    -5742.625   -2187.1058 
   38200    295.12235   -6302.6305   -5115.3238   -5724.3363   -2036.3898 
   38250    312.17095   -6389.1914   -5133.2965   -6204.2795   -3581.1064 
   38300    299.52955   -6342.0259   -5136.9886   -6097.3517   -3211.2206 
   38350    307.45941   -6310.7257   -5073.7858   -5788.0451   -2388.3093 
   38400    305.72502   -6236.0021   -5006.0398   -5267.4313   -874.02961 
   38450    302.50607    -6188.331   -4971.3189   -5229.6333   -863.74067 
   38500    305.16186   -6177.4798   -4949.7832   -4999.9108   -167.61476 
   38550    307.14159   -6176.1378   -4940.4765   -5025.0631   -282.83685 
   38600    301.01922   -6192.8648   -4981.8344    -5305.624   -1082.6737 
   38650    306.50655   -6217.9558   -4984.8493   -5409.7905   -1420.9002 
   38700    297.54803   -6140.8442   -4943.7787   -5185.5368    -808.3803 
   38750    304.67139   -6128.4035   -4902.6801   -5027.2555   -416.54984 
   38800     319.5994   -6165.9274    -4880.147   -5012.3349   -442.00415 
   38850    312.44092    -6176.034   -4919.0529    -5497.646   -1934.6746 
   38900    294.83886   -6208.6725   -5022.5063   -5352.6795   -1104.0188 
   38950    295.01307   -6294.0197   -5107.1526   -5995.2913   -2969.7197 
   39000    289.11779   -6286.6764   -5123.5266   -5698.2323   -1921.6759 
   39050    305.74897   -6279.5348   -5049.4761   -5471.0433   -1409.6181 
   39100    312.57828   -6235.2267   -4977.6931   -5361.5432   -1283.5014 
   39150     319.7326   -6224.4513   -4938.1351   -5414.5022   -1592.8556 
   39200    307.33232   -6191.2537   -4954.8251   -5306.0346   -1174.3591 
   39250    301.96443   -6209.3078   -4994.4747    -5614.482   -2073.1534 
   39300    302.03937   -6234.6436    -5019.509   -5514.0762   -1653.7123 
   39350    296.28229   -6224.1441   -5032.1708   -5288.2959   -856.42002 
   39400    304.38302   -6264.0046   -5039.4413   -5724.2033   -2289.6773 
   39450    305.00198   -6253.0651   -5026.0117   -5739.9548   -2387.2522 
   39500    317.16248   -6289.0706   -5013.0942   -5925.7734   -3051.7772 
   39550    299.84432   -6234.1696   -5027.8659   -5291.9205   -882.93426 
   39600    311.21422   -6264.0848   -5012.0389   -5790.5857   -2603.2711 
   39650    301.71293    -6219.818   -5005.9967   -5347.6928   -1142.5487 
   39700    309.33328   -6205.9708    -4961.492   -5320.6262   -1200.8572 
   39750    314.84269   -6189.6426    -4922.999   -5207.9825   -952.91544 
   39800    309.33548   -6178.0094   -4933.5218   -5325.6308   -1311.1169 
   39850    308.74807   -6222.1748   -4980.0505   -5702.8792   -2416.9633 
   39900    304.97188   -6249.4896   -5022.5573   -5665.5298   -2149.9436 
   39950    317.37863   -6320.7152   -5043.8692    -5944.049    -3009.982 
   40000    305.40047   -6338.0125   -5109.3559   -5968.0881   -2871.3915 
   40050    309.38092   -6423.2697   -5178.5993   -6468.3458   -4312.5986 
   40100    290.15017   -6414.6962   -5247.3931   -6525.3389     -4273.14 
   40150    294.16909   -6433.3351   -5249.8634    -6753.098   -5026.4508 
   40200    298.12026   -6387.7211   -5188.3535   -5890.4751   -2347.7237 
   40250    317.45055   -6375.2804   -5098.1451   -5976.0479   -2935.4933 
   40300    311.23929   -6306.2661   -5054.1193   -5815.0312   -2544.3043 
   40350    308.02268   -6276.1547   -5036.9487   -5648.1431   -2043.6851 
   40400    310.92808   -6284.1199   -5033.2252   -6103.4691    -3578.635 
   40450    303.21253   -6238.0969   -5018.2426   -5447.3576   -1434.8562 
   40500    310.03362   -6231.5058   -4984.2096   -5476.4688   -1645.9951 
   40550    300.13652   -6178.6553   -4971.1761   -5348.3102   -1261.0447 
   40600    294.04151   -6120.1826   -4937.2243   -5204.3785   -893.29881 
   40650    320.49212   -6181.4908   -4892.1189   -5048.5228   -522.97657 
   40700    315.52807    -6217.164   -4947.7631   -5534.4077   -1961.5968 
   40750    308.23111   -6267.9616    -5027.917   -5463.1521   -1455.3201 
   40800    295.16636   -6301.3382   -5113.8544   -5761.8695   -2166.8049 
   40850    310.79151   -6379.2216   -5128.8762     -6254.01   -3762.1733 
   40900    312.33948   -6398.2758   -5141.7028   -6662.8431   -5086.3228 
   40950    308.36997    -6412.425   -5171.8218   -6153.5843   -3282.7748 
   41000    316.63236    -6460.842   -5186.9984    -6268.929   -3617.7129 
   41050    312.36156   -6479.8848    -5223.223   -6642.6258   -4746.1376 
   41100    301.34062   -6502.1214    -5289.798   -7052.5186   -5894.1087 
   41150    301.57206   -6532.1066   -5318.8521   -7209.1477   -6320.6886 
   41200    306.27985   -6540.2247   -5308.0302   -7243.6043   -6472.0885 
   41250    303.04815   -6518.5689   -5299.3759   -6697.7589   -4675.8525 
   41300    309.73806   -6553.2238   -5307.1166   -6912.4503   -5367.8451 
   41350    305.93784   -6572.3097   -5341.4912   -6797.4159    -4868.258 
   41400    295.67321    -6558.678   -5369.1551   -6877.8361   -5044.6623 
   41450    293.90932   -6537.8867   -5355.4601   -6937.6112   -5290.3283 
   41500    314.37575   -6558.3254   -5293.5604    -7099.591   -6038.9271 
   41550    300.48693   -6475.2939    -5266.405   -6528.3888   -4219.7668 
   41600    302.80818   -6451.1288   -5232.9013   -6214.8501    -3283.398 
   41650    311.09295    -6456.505    -5204.947   -6399.5209   -3994.3646 
   41700    299.96429   -6436.4074   -5229.6211   -6426.1233   -4000.8121 
   41750    298.11121   -6448.5397   -5249.2085   -6620.8746   -4586.5175 
   41800    312.69366   -6472.9655   -5214.9676   -6537.0023   -4420.5624 
   41850    320.28049   -6509.9511   -5221.4307   -6632.9733    -4719.855 
   41900    293.09841   -6512.1537   -5332.9895   -6740.0424   -4704.8426 
   41950     295.6828   -6571.6048   -5382.0434   -6869.4296   -4973.4577 
   42000    298.20296   -6557.2055   -5357.5052   -6785.4545   -4774.7149 
   42050    313.68803   -6563.1065   -5301.1082   -6950.4606   -5515.0332 
   42100    304.74822   -6520.6798   -5294.6472   -6539.1827   -4161.4239 
   42150    310.96302    -6549.007   -5297.9717   -6566.2373   -4240.7716 
   42200    309.32678   -6565.2432   -5320.7907   -7211.2884   -6321.3643 
   42250    295.29164   -6509.3819   -5321.3941   -6658.6712   -4471.5293 
   42300    323.49185   -6577.4218   -5275.9818   -7195.1851   -6417.3489 
   42350    310.77609   -6572.5478   -5322.2645   -7250.0274   -6445.9699 
   42400    297.24038   -6565.7632   -5369.9355    -7057.159   -5641.6647 
   42450     307.1795   -6589.0637   -5353.2499   -6699.8345    -4502.651 
   42500    314.93219   -6588.3602   -5321.3566   -6580.6439   -4210.7503 
   42550    295.63702   -6495.0301   -5305.6528   -6598.2591   -4322.1609 
   42600    299.53492   -6452.8355   -5247.7766   -6140.8714   -2986.2919 
   42650     312.1459   -6457.9729   -5202.1788   -6398.6553   -4000.7265 
   42700    302.01402   -6419.4534   -5204.4208    -5893.553   -2304.2905 
   42750     295.9155   -6414.6647   -5224.1671   -6013.5645   -2639.5527 
   42800    305.90952   -6448.8785   -5218.1739   -6248.4495   -3444.9909 
   42850    313.09541   -6487.8001    -5228.186   -6478.4492   -4180.5759 
   42900    304.90438   -6507.5675   -5280.9067   -6673.8609   -4657.6998 
   42950    298.12252   -6541.7547    -5342.378   -6986.7785   -5498.4752 
   43000    281.47288    -6500.923   -5368.5294   -6686.8051    -4407.993 
   43050    299.64672   -6527.0007    -5321.492   -6662.4681   -4483.8978 
   43100    302.15355   -6455.4971   -5239.9032   -6075.9745   -2795.6189 
   43150    315.66619   -6449.4854   -5179.5288   -6189.1974   -3376.0863 
   43200     302.0678   -6399.5703   -5184.3213   -6048.0827   -2888.2079 
   43250    297.74589   -6375.0075   -5177.1461   -6064.4662   -2966.9827 
   43300    302.15526   -6376.3749    -5160.774   -5790.0272   -2104.0695 
   43350    311.41915   -6424.2753    -5171.405   -6368.3815   -4002.3982 
   43400    306.09509   -6410.2665   -5178.8154   -6381.1802   -4020.4154 
   43450    299.51805   -6355.8085   -5150.8175   -5704.0275   -1849.7999 
   43500    308.78958   -6368.4451   -5126.1537   -5680.2825   -1852.8718 
   43550    307.53653   -6340.8379   -5103.5877   -5974.8066    -2913.144 
   43600    316.27455    -6367.987   -5095.5829   -5823.3704   -2433.5444 
   43650    307.42131   -6374.1808   -5137.3941   -5906.2511   -2570.8707 
   43700    302.51898   -6376.3658   -5159.3017   -6149.5951   -3311.2999 
   43750    303.22123   -6371.4049   -5151.5155   -6118.1281   -3232.1171 
   43800    305.24283   -6351.2654    -5123.243   -5592.3035   -1568.4242 
   43850    309.88482   -6329.2778   -5082.5802    -5584.429   -1678.0602 
   43900    309.14347   -6298.2858   -5054.5707   -5702.0717   -2165.0859 
   43950    299.42573   -6264.3571   -5059.7374   -5609.7672   -1839.1655 
   44000     308.3062   -6310.1675   -5069.8209   -5937.4917   -2901.2801 
   44050    304.27309   -6290.2319   -5066.1109   -5909.3445   -2819.5682 
   44100    306.29791   -6266.5733   -5034.3061   -5408.2094   -1250.2416 
   44150    309.63094    -6258.643   -5012.9668   -5526.6328   -1717.5742 
   44200    306.70012   -6246.1215   -5012.2363   -5477.5713   -1555.9672 
   44250    311.18277   -6260.8892   -5008.9698   -5268.9409   -869.28001 
   44300    310.20071   -6269.3367   -5021.3682   -5659.6546   -2134.2742 
   44350    297.43454   -6228.8829    -5032.274   -5633.8012   -2011.3606 
   44400    292.53371   -6183.5856   -5006.6933   -5456.7256   -1504.7987 
   44450    309.61276   -6176.9219   -4931.3188   -5154.2309   -745.36395 
   44500    308.67231   -6140.1311   -4898.3116   -5441.7047   -1816.9743 
   44550    313.12211   -6173.6631   -4913.9415   -5101.3035   -626.49279 
   44600    299.00975   -6170.9639   -4968.0178   -5646.5443   -2268.8274 
   44650    307.48858   -6236.9997   -4999.9424   -5557.7286   -1865.1013 
   44700    312.30785   -6265.7503   -5009.3047   -5517.6371     -1699.74 
   44750    300.44758   -6276.7275   -5067.9969   -5597.8836   -1771.8123 
   44800    291.26939   -6302.8489    -5131.043   -5875.7261   -2490.0391 
   44850    299.40896   -6364.7586   -5160.2064   -6138.8272   -3272.2696 
   44900    306.82028   -6385.1921   -5150.8234   -6398.4882   -4171.8874 
   44950    311.61838   -6384.0172   -5130.3453    -6305.483   -3929.3744 
   45000    303.71367   -6364.5852   -5142.7148   -6006.4245   -2888.0351 
   45050    299.45378   -6346.3911   -5141.6586   -5658.0314    -1726.625 
   45100     302.2701   -6301.4908    -5085.428   -5876.9748   -2646.7399 
   45150    315.73119   -6293.9621    -5023.744   -5623.6069   -2005.7957 
   45200    306.16591    -6254.342    -5022.606   -5375.0154   -1178.3715 
   45250    310.14304   -6302.8392   -5055.1027   -5593.5947   -1800.5861 
   45300    300.49913   -6333.8356   -5124.8975    -5743.444   -2068.2688 
   45350    316.52007   -6436.1238   -5162.7319   -6015.8723   -2852.6939 
   45400    300.49549   -6442.9303   -5234.0069   -6467.4619   -4124.3733 
   45450    285.73302   -6435.2946   -5285.7621   -6226.0701   -3144.1613 
   45500    304.30354   -6466.3559   -5242.1124   -6626.3217   -4628.4593 
   45550    313.29335   -6442.7701   -5182.3596   -6241.0229   -3539.9122 
   45600    312.86296   -6411.2932   -5152.6143   -6537.5217   -4630.7933 
   45650    302.79651   -6392.0051   -5173.8245   -6029.4056   -2860.8552 
   45700    304.34963   -6417.0978   -5192.6689   -6331.8052   -3808.9946 
   45750    306.88681   -6450.3428   -5215.7065   -6537.9417   -4421.2329 
   45800    303.72363   -6477.4301   -5255.5195   -7068.8499   -6063.3355 
   45850     300.8935   -6504.4487    -5293.924   -6545.6862   -4185.5882 
   45900    294.25094   -6496.3999   -5312.5989   -6833.2577   -5084.7129 
   45950    304.91751   -6524.8936     -5298.18   -6747.8362   -4847.2978 
   46000    301.71165   -6505.9838   -5292.1677   -6639.3646   -4504.6985 
   46050    298.36016    -6478.508   -5278.1753   -6791.4631   -5060.0664 
   46100    301.26154   -6435.4052   -5223.3999   -6004.2406   -2610.9413 
   46150    312.86635    -6425.446   -5166.7535   -5877.4547   -2376.4118 
   46200    295.72882   -6345.4865   -5155.7399   -5695.5109   -1804.8629 
   46250    300.72185   -6332.7832   -5122.9492   -5386.4433    -881.0604 
   46300    307.72497   -6323.7736   -5085.7653    -5665.327   -1937.9135 
   46350    307.57717   -6313.7035   -5076.2898   -6055.6098    -3274.608 
   46400    307.19165   -6294.3022   -5058.4395   -5674.2441   -2059.1007 
   46450    306.35141   -6253.2209   -5020.7385    -5476.877   -1525.2163 
   46500    302.62815   -6211.8401   -4994.3368   -5349.6662   -1188.1347 
   46550    308.55687    -6226.796   -4985.4409   -5474.3092   -1634.6567 
   46600    310.10947   -6238.6735   -4991.0721   -5469.6113   -1600.1186 
   46650    309.12306   -6252.9893   -5009.3563   -5789.7352    -2609.397 
   46700    305.10869   -6282.0651   -5054.5823   -5528.3706   -1584.2328 
   46750    311.79436   -6386.5026   -5132.1227   -5954.7683   -2750.7265 
   46800    304.84076   -6453.2042   -5226.7994   -6694.3141   -4907.0121 
   46850    297.38691   -6500.5853   -5304.1681   -6650.1277   -4500.5615 
   46900      311.239   -6587.6411   -5335.4955   -6756.3607   -4751.0274 
   46950    295.80188   -6586.3777   -5396.3371    -6790.509   -4661.7713 
   47000     283.9796   -6545.4646   -5402.9863   -7057.6101   -5532.6593 
   47050    304.70234   -6529.1106   -5303.2627   -6832.0432   -5111.8702 
   47100    315.12616   -6477.2613   -5209.4772   -6546.2075   -4469.7008 
   47150    311.91299   -6470.7562    -5215.899   -6002.2566   -2629.3883 
   47200    311.94528   -6543.7859   -5288.7989   -6816.3595   -5107.7908 
   47250    294.99792   -6553.5394   -5366.7333   -7069.6679   -5694.1991 
   47300    299.36091   -6586.2573   -5381.8985   -7274.6585    -6328.929 
   47350    300.92409   -6574.3554   -5363.7077   -6883.0267    -5080.233 
   47400     305.5676   -6559.9457   -5330.6166   -6830.7791   -5016.1781 
   47450    308.74584   -6540.6013   -5298.4859   -6581.8101   -4291.1238 
   47500    308.13792   -6544.6131   -5304.9434    -6846.931   -5156.0311 
   47550    305.93809   -6562.7964   -5331.9769   -7587.2193   -7540.9817 
   47600    300.89531   -6535.2912   -5324.7593   -7199.6358   -6269.1309 
   47650    309.98026   -6508.1826   -5261.1011   -6420.3354   -3876.1974 
   47700    317.84907   -6498.3948   -5219.6562    -6156.614   -3132.9587 
   47750    295.53241   -6447.4422   -5258.4858   -6119.8139   -2880.0717 
   47800    309.80158   -6521.6157   -5275.2529   -6495.3546   -4079.7232 
   47850    302.01365   -6546.1856   -5331.1545   -6953.1191   -5423.4548 
   47900     304.1894   -6588.8277   -5365.0433   -7254.2859   -6317.1674 
   47950    300.79565   -6592.8131   -5382.6822   -6980.7067   -5343.4052 
   48000    297.18642   -6578.2333   -5382.6227   -6853.0755   -4916.8365 
   48050    309.60533   -6600.1544   -5354.5812   -7093.7116   -5815.2288 
   48100    308.04135   -6581.7848   -5342.5037   -6961.5192   -5413.5938 
   48150    315.77357   -6597.7592   -5327.3705   -7341.0874   -6733.3791 
   48200     306.8999   -6564.5595   -5329.8705   -6948.8129   -5413.3493 
   48250    309.02344   -6589.1983   -5345.9661   -7286.5374   -6488.7981 
   48300    299.20894   -6597.2065    -5393.459   -7305.2416   -6392.5357 
   48350    291.32951   -6591.0503   -5419.0026   -7294.1662   -6270.0908 
   48400    302.93096   -6595.7545    -5377.033   -7103.6768   -5773.4767 
   48450    306.63248   -6568.8126   -5335.1994   -6766.3589   -4785.4489 
   48500    312.34275   -6569.3487   -5312.7626   -6974.2982   -5555.7708 
   48550    303.01491   -6549.9117   -5330.8524   -6792.2336   -4886.5028 
   48600    305.66267   -6581.4539   -5351.7424   -7079.9055    -5778.557 
   48650    301.50719   -6596.5446    -5383.551   -7229.5238   -6172.4835 
   48700    298.15375    -6609.786   -5410.2836   -6906.9105   -5004.3562 
   48750    294.44648   -6579.5843   -5394.9966   -6780.3195   -4632.1825 
   48800    306.61389    -6570.294   -5336.7557   -6687.4501   -4516.3935 
   48850    312.38341   -6517.4773   -5260.7276   -6609.7138   -4510.6817 
   48900    314.34625   -6473.8486   -5209.2023   -6529.8793   -4416.0225 
   48950    317.65824   -6477.1126   -5199.1417   -6520.8633   -4419.5152 
   49000    309.30151   -6474.8613   -5230.5104   -6593.0624   -4556.0424 
   49050    298.15582   -6421.9079   -5222.3973   -6327.4417   -3694.9995 
   49100    311.34279   -6426.8424   -5174.2793   -6261.2185   -3634.4603 
   49150     325.0566   -6444.4368   -5136.7016    -6227.691    -3648.003 
   49200    309.67461   -6409.2389    -5163.387   -5726.8749   -1884.1664 
   49250    313.06098   -6485.2681   -5225.7925   -6264.4208   -3472.9201 
   49300    296.71949   -6507.5577   -5313.8255   -6795.7613   -4955.2328 
   49350    290.95584   -6534.6505   -5364.1061   -6680.8419    -4402.844 
   49400    299.77345   -6529.2078   -5323.1893   -6570.6782   -4171.2993 
   49450    312.20666    -6497.167   -5241.1284   -6197.1416   -3196.6754 
   49500    304.75929   -6431.3482   -5205.2711   -6027.4313   -2749.1035 
   49550    306.78793   -6399.8057   -5165.5672   -6071.7275   -3029.9795 
   49600    306.80404   -6353.0033      -5118.7   -5985.0262   -2896.7841 
   49650    309.29189   -6309.8318   -5065.5196   -5857.7437   -2649.0044 
   49700    328.38316   -6344.8728   -5023.7545   -5935.4627   -3048.5303 
   49750    301.61755    -6303.387   -5089.9494    -5732.775   -2149.4524 
   49800     302.4298    -6366.221   -5149.5157    -6274.827   -3762.7671 
   49850    296.36385   -6362.0454    -5169.744   -6061.9262   -2983.2403 
   49900     298.2248   -6363.2852    -5163.497    -5896.353   -2450.4921 
   49950    299.58042    -6365.263   -5160.0211   -5925.8363   -2560.6998 
  STMD DIG: istep= 50000  TSC1= 50000 Tlow= 0.909173
   50000    301.08123   -6351.4762   -5140.1964   -5668.6878   -1767.1467 
   50050    312.06076    -6387.674   -5132.2224   -6016.2972    -2956.131 
   50100    299.19848   -6349.8092   -5146.1038   -5840.8565   -2323.0838 
   50150    312.27761   -6384.0291   -5127.7051   -6105.2028   -3268.5143 
   50200    292.03543   -6340.9862   -5166.0985   -5461.7047   -988.43535 
   50250    307.72411   -6384.2808   -5146.2759   -6272.0432   -3764.2917 
   50300    296.34004   -6288.5881   -5096.3825   -5516.0354   -1403.2171 
   50350    317.21736   -6310.0968   -5033.8997   -5572.5095   -1800.9801 
   50400    307.04026   -6262.7471   -5027.4934    -5444.055   -1392.8806 
   50450    303.04003   -6249.2508   -5030.0905   -5378.9831    -1166.612 
   50500    308.62748   -6254.2086   -5012.5694   -5285.5884   -912.90924 
   50550    311.14344   -6258.7614   -5007.0003   -5544.4118   -1796.9732 
   50600    300.19716    -6223.311   -5015.5879   -5415.1762   -1336.1262 
   50650    308.23188   -6233.5973   -4993.5496   -5401.9694   -1365.6564 
[...]
  988350    306.77521   -6167.6568   -4933.4695   -5255.4388   -1076.5869 
  988400    308.28035   -6190.5695   -4950.3268   -5332.8094   -1278.9288 
  988450    299.17856   -6203.6908   -5000.0655   -5072.2259   -241.28656 
  988500    295.41361   -6238.6022   -5050.1237   -5442.2086   -1311.0364 
  988550    292.35619   -6278.7578   -5102.5796   -5668.3818   -1891.9048 
  988600    299.76821   -6299.5925   -5093.5951   -5856.0525   -2549.4721 
  988650    315.80415   -6315.4992   -5044.9875    -5816.555   -2579.9339 
  988700    311.88319   -6290.8653   -5036.1281   -5559.1781   -1748.9518 
  988750    304.19514   -6257.9872   -5034.1797   -5189.2176     -518.409 
  988800    306.70121   -6254.1411   -5020.2515   -5596.0067   -1925.1853 
  988850    302.09296   -6202.4762   -4987.1261   -5392.8678   -1356.7015 
  988900    317.34495   -6183.6092   -4906.8987   -5246.6629   -1136.0886 
  988950    307.79626   -6099.6479   -4861.3528   -5013.4031   -508.41916 
  989000    314.03024   -6162.0943   -4898.7192    -5200.017   -1007.4667 
  989050    302.83544   -6193.8439   -4975.5067   -5392.8434   -1395.4726 
  989100     297.1271   -6235.3953   -5040.0233   -5565.7083   -1757.7626 
  989150    302.93718    -6298.493   -5079.7465   -5861.7082   -2614.6895 
  989200     297.7996   -6286.2876   -5088.2101   -5784.4297   -2327.9889 
  989250    308.63946   -6242.0249   -5000.3375   -5332.2237   -1109.7468 
  989300    320.39399   -6203.3261   -4914.3491   -5119.9453   -687.46369 
  989350    303.95536   -6131.8461   -4909.0033   -4857.4686    172.31949 
  989400    306.65989   -6163.8554    -4930.132   -5469.4901   -1803.4822 
  989450    304.83883   -6203.5425   -4977.1454   -5001.2208   -80.502125 
  989500    315.27046   -6308.7534   -5040.3888   -5795.0963   -2523.5581 
  989550    292.84764   -6308.5106   -5130.3553   -6105.1345   -3259.4246 
  989600     296.4845   -6358.1417   -5165.3549   -6176.7998   -3382.0257 
  989650          313   -6398.4484   -5139.2181   -5899.0442   -2540.6733 
  989700    304.93208   -6358.3065   -5131.5343   -6009.1442   -2934.5139 
  989750    304.35264   -6357.3117   -5132.8706   -5653.7306   -1741.6289 
  989800    307.26216   -6393.7873   -5157.6409   -6171.5765    -3390.354 
  989850    295.59232   -6373.6597   -5184.4623   -6356.7305   -3919.7799 
  989900      312.103    -6429.098   -5173.4765   -6343.5404   -3912.4091 
  989950    311.28847   -6452.6097   -5200.2651   -6551.1026   -4516.8718 
  990000    303.00251   -6493.3438   -5274.3344   -6609.4169   -4464.1909 
  990050    294.04406   -6512.8954   -5329.9267   -6891.7358   -5222.3094 
  990100    310.96841   -6564.6132   -5313.5562   -7125.2463   -6057.8509 
  990150    317.85326   -6592.0318   -5313.2764   -7082.4629   -5915.7293 
  990200    302.13027   -6573.5668   -5358.0666   -7252.4052   -6334.2074 
  990250    304.97962    -6585.668   -5358.7045   -7141.8348   -5962.3538 
  990300    315.21828   -6643.4495   -5375.2948   -7157.8568   -5960.4534 
  990350    307.44022   -6679.9923   -5443.1296   -7386.9423   -6499.6369 
  990400    294.99946   -6687.4014   -5500.5891   -7580.5804   -6954.9847 
  990450    296.68111   -6687.8695   -5494.2917   -7496.6448   -6695.3815 
  990500    303.55456   -6665.4651   -5444.2348   -7275.6666   -6123.8622 
  990550    310.96489   -6636.3829     -5385.34   -7288.4558    -6363.556 
  990600    311.27887   -6612.1764   -5359.8704   -7207.9045   -6179.3764 
  990650    308.41158   -6612.2302   -5371.4596   -7311.5758   -6487.2766 
  990700    305.26264   -6638.9402   -5410.8381   -7463.3975   -6863.2591 
  990750    302.04044   -6677.7556   -5462.6167   -7196.9505   -5799.1902 
  990800    302.42417   -6708.6826   -5491.9999   -7702.0385   -7389.8312 
  990850    307.75729   -6753.6285   -5515.4902   -8065.3515   -8526.1158 
  990900    298.46432   -6767.7198    -5566.968   -8073.6698   -8381.8009 
  990950    285.24998   -6753.0656   -5605.4764   -7883.9578   -7618.6875 
  991000    306.17261   -6805.9558   -5574.1928   -8269.7627   -9013.3296 
  991050    305.95168   -6781.3317   -5550.4575   -8010.5694   -8226.0153 
  991100    302.81298   -6740.0544   -5521.8075   -7666.3703    -7170.896 
  991150    307.35248    -6698.395   -5461.8852   -7551.7453   -6987.9836 
  991200    310.11089   -6651.2282   -5403.6211   -7240.6305   -6142.5125 
  991250    306.28602   -6622.3549   -5390.1356   -7006.1385   -5403.5203 
  991300    323.67642   -6694.0931   -5391.9105    -7442.518   -6856.7325 
  991350    307.47933   -6689.9691    -5452.949   -7530.1026   -6945.4961 
  991400    295.69888   -6694.3447   -5504.7185   -7598.3396   -7000.5593 
  991450    306.25644   -6756.0336   -5523.9334   -7879.8898   -7877.7448 
  991500    301.25464   -6767.0027   -5555.0252   -7855.7257   -7692.9827 
  991550    297.76242    -6769.826    -5571.898    -7777.493   -7374.9731 
  991600    297.14543   -6772.8359   -5577.3901   -7990.1178   -8067.5743 
  991650    313.21626   -6821.8213    -5561.721   -8335.9804   -9276.4483 
  991700    308.08372   -6826.0801   -5586.6285   -8349.9215   -9239.7794 
  991750    301.16882   -6811.1075   -5599.4752    -8376.138   -9284.4847 
  991800    303.99547   -6797.9376   -5574.9334   -8289.4227   -9076.5918 
  991850    300.53987   -6743.5616   -5534.4596   -7610.6538   -6942.2882 
  991900    311.96156   -6716.7425     -5461.69   -7190.8128    -5781.766 
  991950    314.21692   -6690.4905   -5426.3644   -7315.0268   -6315.2275 
  992000    310.24341    -6701.476   -5453.3358   -7386.9447   -6465.5178 
  992050    303.91559   -6739.5347   -5516.8519   -7801.3131   -7638.6823 
  992100    296.45464   -6766.8995   -5574.2328    -7886.572   -7731.8994 
  992150    307.39307   -6851.2391   -5614.5661   -8386.8735   -9269.9214 
  992200    282.95494   -6812.7482   -5674.3922    -8420.898   -9183.6469 
  992250    298.63353   -6845.9326   -5644.5001   -8162.0272   -8417.9981 
  992300    288.40402   -6792.0513   -5631.7731   -8310.1877   -8955.9667 
  992350     319.2032   -6840.2212   -5556.0348   -8231.6416   -8946.5782 
  992400    303.46997   -6779.7071   -5558.8171   -8289.8393   -9131.8735 
  992450    309.23688   -6765.1223   -5521.0314   -8117.2751   -8681.2071 
  992500    315.69329   -6743.3534   -5473.2877   -7720.0315   -7512.5645 
  992550    311.08547   -6735.4036   -5483.8757   -7677.1094   -7333.6399 
  992600    300.77502   -6731.0308   -5520.9828   -7422.3925   -6357.8512 
  992650    291.91643   -6723.0384   -5548.6294   -7633.8226   -6972.3787 
  992700     302.8624   -6763.9561   -5545.5103   -7949.8432   -8039.5041 
  992750     307.4196   -6795.1144   -5558.3346   -8194.8032   -8815.7097 
  992800     315.6575    -6848.904   -5578.9824   -8448.2526   -9594.1413 
  992850    300.88054   -6851.9793   -5641.5068   -8786.5375   -10516.217 
  992900    304.03292   -6899.5474   -5676.3925   -8596.0278   -9762.5501 
  992950    300.09857   -6909.1752   -5701.8487   -8660.9777   -9894.6072 
  993000    303.52722   -6894.2543    -5673.134   -8346.8794   -8940.3539 
  993050    309.26034   -6861.3461   -5617.1609   -8200.8963   -8639.3824 
  993100    297.03498   -6793.1313   -5598.1299   -8013.9596   -8077.9466 
  993150    308.70317   -6802.0703   -5560.1266   -7882.1724   -7764.3561 
  993200    300.94733   -6786.8019   -5576.0608   -8155.9773   -8626.6132 
  993250    307.98856   -6828.4395   -5589.3707   -8513.9911   -9779.2189 
  993300    302.74984    -6831.351   -5613.3582   -8506.0207   -9672.3596 
  993350    309.05276   -6867.8381    -5624.488   -8704.5654   -10299.029 
  993400    308.28355    -6875.012   -5634.7565    -8386.845   -9202.3142 
  993450    309.45939   -6902.3235   -5657.3374   -8456.6277   -9360.1456 
  993500    298.24766   -6877.1443   -5677.2641   -8461.9598   -9311.3446 
  993550    312.76795     -6899.32   -5641.0233   -8507.6336   -9585.2473 
  993600    293.37995   -6837.6232   -5657.3263   -8211.5119   -8540.5751 
  993650    307.42493   -6849.4674   -5612.6662   -8368.9942   -9216.4899 
  993700    304.27404   -6815.3807   -5591.2558   -8210.0178    -8756.503 
  993750    306.36488   -6811.8816   -5579.3451   -8000.3179   -8095.1439 
  993800     316.5972    -6848.482   -5574.7798   -8262.5246   -8987.1645 
  993850    303.73859   -6845.5487   -5623.5779   -8374.8323    -9199.525 
  993900    306.21303    -6874.477   -5642.5514   -8326.9362   -8975.9295 
  993950    311.89955   -6917.0492   -5662.2461   -8235.6318   -8604.7754 
  994000     290.7569   -6889.3103   -5719.5662   -8438.0909   -9090.0849 
  994050    305.48843   -6918.7682   -5689.7577   -8630.9059   -9834.4838 
  994100    308.24108   -6881.0046   -5640.9199   -8201.6607   -8562.4941 
  994150    303.05908   -6826.8761   -5607.6391   -8101.3629   -8338.4055 
  994200    307.60942    -6829.243   -5591.6996    -8318.543   -9117.9009 
  994250    302.08521   -6826.6319   -5611.3128   -8107.6609   -8347.1803 
  994300    294.28578   -6795.4377   -5611.4966   -7782.0089   -7257.6651 
  994350    312.64092   -6872.8738   -5615.0881   -8301.3988   -8982.3691 
  994400    294.49667   -6873.2119   -5688.4223   -8461.0632   -9271.0365 
  994450    294.43214   -6891.1866   -5706.6567   -8452.4881   -9181.3922 
  994500    304.43416     -6915.25   -5690.4809    -8616.727   -9784.6548 
  994550    300.74977   -6882.2109   -5672.2645   -8234.9564   -8569.0181 
  994600    308.49339   -6872.1981   -5631.0984   -8118.6191   -8317.6638 
  994650    306.14731   -6851.0279   -5619.3667   -8214.5171   -8677.5515 
  994700    310.76623    -6874.386   -5624.1424   -8206.2545   -8633.9544 
  994750    317.02754   -6926.6166   -5651.1831   -8419.1989   -9255.5713 
  994800     309.8703   -6949.7997   -5703.1605    -8318.085   -8743.6709 
  994850    297.60008   -6947.8072   -5750.5323   -8506.1511   -9214.1185 
  994900    299.59231   -6935.7953   -5730.5055   -8384.4007   -8873.9799 
  994950    308.05688   -6911.7606    -5672.417   -8364.3004   -9001.0032 
  995000    302.79141    -6861.386   -5643.2259   -8169.3937   -8446.8903 
  995050     310.1744    -6864.421   -5616.5584   -8125.2717   -8388.5268 
  995100     308.7576   -6862.3777    -5620.215   -8190.7573   -8595.2678 
  995150    299.85468   -6850.0946   -5643.7492   -8169.4768   -8445.4186 
  995200    305.10688    -6870.877   -5643.4016   -8368.5677   -9112.2924 
  995250    312.13767   -6877.4302   -5621.6692   -8479.9749   -9557.4789 
  995300      298.328   -6813.3661   -5613.1627   -7648.1072    -6804.359 
  995350    305.72843   -6795.6608   -5565.6848   -7706.7991   -7159.3655 
  995400    310.44194   -6777.8133   -5528.8744   -7822.1886   -7668.2848 
  995450    320.92134   -6812.5373   -5521.4387   -7774.5021   -7533.6957 
  995500    296.17196   -6779.3539   -5587.8245   -7846.0218   -7550.8622 
  995550    309.50722   -6840.5878   -5595.4093    -8247.344   -8867.4244 
  995600    300.46307   -6811.2711   -5602.4782    -8024.056   -8097.1669 
  995650    304.19294   -6791.6553   -5567.8567   -7806.5652   -7485.6963 
  995700    308.05416   -6801.1671   -5561.8345   -7868.9157   -7714.3184 
  995750    305.53767   -6799.0278   -5569.8193   -7839.2777   -7588.5168 
  995800    288.87057   -6762.2982    -5600.143   -7776.7962   -7278.1984 
  995850     313.0935   -6815.4377   -5555.8313   -7929.1316   -7935.7387 
  995900    299.17782   -6766.7205   -5563.0982   -7672.1603   -7052.1904 
  995950    301.06155   -6754.1759   -5542.9752   -7800.5343   -7548.7281 
  996000     314.3121   -6761.3383   -5496.8293   -7692.2246   -7340.8677 
  996050    305.50657   -6712.2146   -5483.1311   -7449.3607   -6574.5932 
  996100    312.41634    -6723.435   -5466.5528   -7204.1412   -5810.0727 
  996150    308.19968   -6704.8267   -5464.9086   -7310.8218   -6172.2844 
  996200    310.83361   -6729.3842   -5478.8695    -7489.517    -6723.116 
  996250    303.08201   -6737.4836   -5518.1543   -7675.3895   -7213.2695 
  996300    303.70391   -6766.2947   -5544.4635   -7812.2665   -7582.9815 
  996350    293.90414   -6755.6844   -5573.2787   -7634.5505   -6892.3914 
  996400    308.07568   -6793.1244   -5553.7051   -7914.3062   -7893.2756 
  996450    313.23348   -6785.4007   -5525.2311   -8002.8445   -8284.5363 
  996500    294.31304   -6696.5571   -5512.5063   -7538.6999   -6775.0984 
  996550    299.94726   -6641.3377   -5434.6199   -7396.9989    -6561.718 
  996600    312.05228    -6589.583   -5334.1654   -7378.7834    -6836.705 
  996650    325.81565   -6594.2554   -5283.4665   -6964.3066   -5620.3204 
  996700    296.12358    -6563.858   -5372.5232   -6848.3663   -4934.8604 
  996750    297.96881   -6660.9059   -5462.1476   -7481.9597   -6753.7603 
  996800    299.69034   -6729.4926   -5523.8084   -7653.9976   -7122.8343 
  996850    289.08364   -6730.7908   -5567.7784   -7714.5807   -7178.3846 
  996900    294.60673   -6721.1365   -5535.9042   -7835.7175   -7690.0161 
  996950     308.2485   -6682.7701   -5442.6556   -7196.4625   -5864.3032 
  997000    315.58939   -6637.9517    -5368.304   -7076.6216   -5712.1983 
  997050     307.3537   -6613.6333   -5377.1187   -7171.2252   -5999.0555 
  997100    310.33458   -6675.6828   -5427.1757   -7171.7312   -5833.3688 
  997150    299.06472    -6693.236   -5490.0688     -7351.92   -6225.5775 
  997200    304.74412   -6723.5817   -5497.5656   -7511.4613   -6733.9771 
  997250    302.88484   -6712.8817   -5494.3457    -7411.424   -6410.2434 
  997300    307.71273   -6698.5915   -5460.6324   -7281.2717   -6087.7746 
  997350      304.073    -6661.165   -5437.8489    -7439.496    -6693.021 
  997400     301.3576   -6608.3702   -5395.9785    -7454.797   -6884.1882 
  997450    308.32989   -6565.2046   -5324.7626   -7058.3759    -5796.781 
  997500    314.62614   -6552.1094    -5286.337   -6693.2419   -4704.3476 
  997550    321.19134   -6625.8821   -5333.6973   -7232.9943    -6350.787 
  997600    292.96713    -6656.994    -5478.358   -7474.1489   -6673.4393 
  997650    289.89642    -6736.985   -5570.7028   -7940.2385    -7923.151 
  997700     289.2694   -6741.9196   -5578.1599   -7758.0716   -7289.0945 
  997750    299.05905   -6728.0089   -5524.8644   -7675.0103   -7189.5647 
  997800    297.72177   -6646.7067   -5448.9423   -7257.5529   -6047.5536 
  997850     322.3747   -6635.9089   -5338.9633   -7145.2513   -6039.7876 
  997900    308.75718   -6576.0473   -5333.8863   -6907.7491   -5262.6141 
  997950    309.82322   -6638.9965   -5392.5467   -7470.0877   -6946.7916 
  998000    295.81782   -6663.4839   -5473.3793   -7509.3972   -6807.9485 
  998050    302.17017   -6710.5781   -5494.9173   -7524.6764   -6787.0204 
  998100    293.49931   -6670.9424   -5490.1653   -7321.0407   -6122.0017 
  998150    303.22604   -6653.2985   -5433.3898   -7378.8201   -6505.0455 
  998200    302.73529   -6614.3445   -5396.4101   -7087.5027   -5654.6019 
  998250    323.99714    -6645.105   -5341.6321   -7556.6999   -7406.6479 
  998300    314.98472   -6605.7462   -5338.5312   -7086.3772   -5844.3715 
  998350    306.71558   -6608.5005    -5374.553   -6980.9376   -5371.3592 
  998400    311.68402   -6664.1973   -5410.2613   -7095.1022   -5633.6977 
  998450    295.82276   -6659.7183   -5469.5938   -7367.0321   -6344.5722 
  998500    293.19779    -6660.729    -5481.165   -7357.3562   -6273.5269 
  998550    298.60863   -6680.1201   -5478.7878   -7257.3037   -5946.9245 
  998600    303.48393   -6683.5284   -5462.5822   -7264.3759   -6024.7598 
  998650     296.3447   -6637.8831   -5445.6587   -7194.8504   -5848.8713 
  998700    302.55862   -6614.6122   -5397.3886   -7260.5689   -6230.0214 
  998750    310.12554   -6608.6666   -5361.0005   -7114.0038   -5861.6162 
  998800    307.27575   -6605.5255   -5369.3245   -6869.3819    -5015.827 
  998850    304.79194   -6617.3933   -5391.1848   -6917.3314   -5103.0629 
  998900    307.74322   -6668.7954   -5430.7137   -6998.9472   -5243.7911 
  998950    292.38291   -6661.7398   -5485.4541   -7462.3541   -6610.2726 
  999000    293.15442   -6664.7766    -5485.387   -7319.2508   -6131.9943 
  999050    310.75264   -6645.1479   -5394.9589   -7398.6282   -6699.7823 
  999100    313.84079   -6581.7558   -5319.1429   -6748.3472   -4778.9112 
  999150    311.45497   -6572.0542   -5319.0397   -6685.2133   -4568.1521 
  999200    315.18349   -6626.0008   -5357.9861     -7007.95   -5517.0779 
  999250    296.46797   -6610.2511   -5417.5308   -7345.7125   -6447.3703 
  999300    307.65661   -6640.1503    -5402.417   -7294.4757   -6326.5836 
  999350    300.14946   -6620.6444   -5413.1131   -7095.6479   -5625.9867 
  999400    310.89245   -6680.6965   -5429.9451   -7456.8291   -6777.4066 
  999450    302.34113   -6682.4227   -5466.0741   -7356.3948   -6320.7721 
  999500    307.25447   -6731.7415    -5495.626   -7536.3021   -6823.5242 
  999550    307.54119   -6766.4228   -5529.1539   -7695.6541   -7244.2496 
  999600    300.77382   -6773.7657   -5563.7225   -7893.3731   -7789.7847 
  999650    308.18058   -6807.5013     -5567.66   -8245.5977   -8954.3719 
  999700    289.72506    -6756.454   -5590.8611   -7953.1264   -7898.8404 
  999750    293.97972   -6757.4534   -5574.7436   -7689.0045    -7069.574 
  999800    291.00975   -6721.2496   -5550.4883   -7753.9415   -7367.8115 
  999850    305.37427   -6714.1986   -5485.6474   -7590.0307   -7036.5457 
  999900    299.05742   -6645.9693   -5442.8314   -7085.5102   -5492.7182 
  999950    316.62832   -6652.7147   -5378.8874   -7394.5661   -6739.9392 
 1000000    309.68146   -6629.3219   -5383.4424   -7027.5841   -5497.6095 
Loop time of 9795.03 on 4 procs for 1000000 steps with 2004 atoms

Performance: 17.642 ns/day, 1.360 hours/ns, 102.093 timesteps/s
93.2% CPU use with 4 MPI tasks x 1 OpenMP threads

MPI task timing breakdown:
Section |  min time  |  avg time  |  max time  |%varavg| %total
---------------------------------------------------------------
Pair    | 7208.2     | 7266.1     | 7390.9     |  85.7 | 74.18
Bond    | 2.9679     | 19.893     | 50.586     | 407.9 |  0.20
Kspace  | 1041       | 1197.4     | 1261.9     | 263.9 | 12.22
Neigh   | 653.29     | 653.58     | 654.06     |   1.2 |  6.67
Comm    | 200.89     | 202.18     | 203.51     |   8.3 |  2.06
Output  | 0.55472    | 0.59406    | 0.70692    |   8.5 |  0.01
Modify  | 269.45     | 269.71     | 269.87     |   1.0 |  2.75
Other   |            | 185.6      |            |       |  1.89

Nlocal:    501 ave 513 max 491 min
Histogram: 1 0 1 0 0 1 0 0 0 1
Nghost:    6650.75 ave 6682 max 6587 min
Histogram: 1 0 0 0 0 0 0 1 0 2
Neighs:    177155 ave 178868 max 175670 min
Histogram: 1 0 1 0 0 0 1 0 0 1

Total # of neighbors = 708620
Ave neighs/atom = 353.603
Ave special neighs/atom = 2.34032
Neighbor list builds = 86744
Dangerous builds = 0

write_restart     restart.peptide.${rep}.*
write_restart     restart.peptide.0.*
PPPM initialization ...
  using 12-bit tables for long-range coulomb (../kspace.cpp:321)
  G vector (1/distance) = 0.268725
  grid = 15 15 15
  stencil order = 5
  estimated absolute RMS force accuracy = 0.0228209
  estimated relative force accuracy = 6.87243e-05
  using double precision FFTs
  3d grid and FFT values/proc = 4312 960
RESTMD: #replicas= 2  walker= 0
STMD: STAGE= 1, #bins= 251  binsize= 12.000000
  Emin= -8500.000000 Emax= -5500.000000 f-value= 1.024290 df= 0.001000
  f-tolerances: STG3= 1.000480 STG4= 1.000048
write_data        data.peptide.${rep}
write_data        data.peptide.0
PPPM initialization ...
  using 12-bit tables for long-range coulomb (../kspace.cpp:321)
  G vector (1/distance) = 0.268725
  grid = 15 15 15
  stencil order = 5
  estimated absolute RMS force accuracy = 0.0228209
  estimated relative force accuracy = 6.87243e-05
  using double precision FFTs
  3d grid and FFT values/proc = 4312 960
RESTMD: #replicas= 2  walker= 0
STMD: STAGE= 1, #bins= 251  binsize= 12.000000
  Emin= -8500.000000 Emax= -5500.000000 f-value= 1.024290 df= 0.001000
  f-tolerances: STG3= 1.000480 STG4= 1.000048

quit
