LAMMPS (11 May 2018)
Processor partition = 1
OMP_NUM_THREADS environment is not set. Defaulting to 1 thread. (../comm.cpp:87)
  using 1 OpenMP thread(s) per MPI task
# Must be run with at LEAST 2 procs in 'partition mode'

units           real
atom_style      full

pair_style        lj/charmm/coul/long 8.0 10.0 10.0
bond_style        harmonic
angle_style       charmm
dihedral_style    charmm
improper_style    harmonic
kspace_style      pppm 0.0001

# Define variables
variable tlo world 220 270
variable thi world 300 350
variable rep world 0 1
variable temp equal 305.0
variable steps equal 1000000

read_data         data.peptide
  orthogonal box = (36.8402 41.0137 29.7681) to (64.2116 68.3851 57.1395)
  1 by 2 by 2 MPI processor grid
  reading atoms ...
  2004 atoms
  reading velocities ...
  2004 velocities
  scanning bonds ...
  3 = max bonds/atom
  scanning angles ...
  6 = max angles/atom
  scanning dihedrals ...
  14 = max dihedrals/atom
  scanning impropers ...
  1 = max impropers/atom
  reading bonds ...
  1365 bonds
  reading angles ...
  786 angles
  reading dihedrals ...
  207 dihedrals
  reading impropers ...
  12 impropers
  4 = max # of 1-2 neighbors
  7 = max # of 1-3 neighbors
  14 = max # of 1-4 neighbors
  18 = max # of special neighbors

neighbor          2.0 bin
neigh_modify      delay 5

timestep          2.0

thermo_style      custom step temp pe etotal enthalpy press
thermo            50

fix               1 all nvt temp ${temp} ${temp} 100.0 tchain 1
fix               1 all nvt temp 305 ${temp} 100.0 tchain 1
fix               1 all nvt temp 305 305 100.0 tchain 1
fix               fxSTMD all stmd ${steps} constant_f 0.001 0.00002 ${tlo} ${thi} -8500 -5500 12 50000 500000 ${temp} no
fix               fxSTMD all stmd 1000000 constant_f 0.001 0.00002 ${tlo} ${thi} -8500 -5500 12 50000 500000 ${temp} no
fix               fxSTMD all stmd 1000000 constant_f 0.001 0.00002 270 ${thi} -8500 -5500 12 50000 500000 ${temp} no
fix               fxSTMD all stmd 1000000 constant_f 0.001 0.00002 270 350 -8500 -5500 12 50000 500000 ${temp} no
fix               fxSTMD all stmd 1000000 constant_f 0.001 0.00002 270 350 -8500 -5500 12 50000 500000 305 no
fix               2 all shake 0.0001 10 0 b 4 6 8 10 12 14 18 a 31
  19 = # of size 2 clusters
  6 = # of size 3 clusters
  3 = # of size 4 clusters
  640 = # of frozen angles

group             peptide type <= 12
84 atoms in group peptide
#dump              mydump peptide dcd 1000 ${rep}.dcd
#dump_modify       mydump unwrap yes

# Run in partition mode, but with exchanges OFF until STG2
temper/stmd       ${steps} 1000 ${temp} fxSTMD 0 12345 off
temper/stmd       1000000 1000 ${temp} fxSTMD 0 12345 off
temper/stmd       1000000 1000 305 fxSTMD 0 12345 off
PPPM initialization ...
  using 12-bit tables for long-range coulomb (../kspace.cpp:321)
  G vector (1/distance) = 0.268725
  grid = 15 15 15
  stencil order = 5
  estimated absolute RMS force accuracy = 0.0228209
  estimated relative force accuracy = 6.87243e-05
  using double precision FFTs
  3d grid and FFT values/proc = 4312 960
RESTMD: #replicas= 2  walker= 1
STMD: STAGE= 1, #bins= 251  binsize= 12.000000
  Emin= -8500.000000 Emax= -5500.000000 f-value= 1.024290 df= 0.001000
  f-tolerances: STG3= 1.000480 STG4= 1.000048
Neighbor list info ...
  update every 1 steps, delay 5 steps, check yes
  max neighbors/atom: 2000, page size: 100000
  master list distance cutoff = 12
  ghost atom cutoff = 12
  binsize = 6, bins = 5 5 5
  1 neighbor lists, perpetual/occasional/extra = 1 0 0
  (1) pair lj/charmm/coul/long, perpetual
      attributes: half, newton on
      pair build: half/bin/newton
      stencil: half/bin/3d/newton
      bin: standard
  STMD DIG: istep= 0  TSC1= 50000 Tlow= 1.147104
Per MPI rank memory allocation (min/avg/max) = 15.69 | 15.88 | 16.08 Mbytes
Step Temp PotEng TotEng Enthalpy Press 
       0    303.06656   -6135.9847   -4916.7176   -4142.6592    2588.2629 
      50    290.59402   -6017.9277   -4848.8389   -4461.0573    1296.6474 
     100    312.22832   -5952.8695   -4696.7438   -3921.0777    2593.6385 
     150    311.15712   -5822.4971   -4570.6809   -3843.7683    2430.6189 
     200     314.7213   -5777.0156   -4510.8603   -3924.6803    1960.0432 
     250    322.39359   -5830.8806    -4533.859   -3652.9155    2945.6606 
     300    296.06061   -5819.3626   -4628.2812   -4229.6415    1332.9542 
     350    297.01984   -5890.9591   -4696.0186   -4362.0736    1116.6309 
     400    294.55468   -5858.6372   -4673.6143   -4147.2314    1760.0963 
     450    316.00616   -5873.3144   -4601.9901   -4069.4332    1780.7404 
     500    316.85073   -5831.6674   -4556.9452   -3697.7698    2872.8735 
     550    304.89372   -5832.3321   -4605.7142   -3660.9845    3158.9464 
     600    299.98246   -5899.8323   -4692.9729   -4140.5238    1847.2553 
     650    300.05726   -5953.0489   -4745.8885   -4229.6014    1726.3384 
     700    299.12249   -5917.6679   -4714.2682   -4098.3363    2059.5263 
     750    312.30964   -5885.6636   -4629.2107   -3844.0185    2625.4917 
     800    314.43436   -5846.7313   -4581.7304   -4138.6086    1481.6916 
     850    300.34859   -5788.0385   -4579.7061   -4126.1149    1516.6987 
     900    304.16625   -5843.0613   -4619.3701   -3955.7592    2218.9533 
     950    299.53898   -5894.9102   -4689.8349   -4130.1344    1871.5022 
    1000     298.3027   -5917.5403   -4717.4388   -4102.2866    2056.9192 
    1050    297.48555   -5888.2602   -4691.4461   -4012.9661     2268.672 
    1100    307.95112    -5889.158   -4650.2399   -3805.0623    2826.0681 
    1150    308.96008   -5865.5036   -4622.5263   -3638.6544    3289.8284 
    1200    322.98366   -5923.3978   -4624.0022   -4079.4705    1820.7815 
    1250    297.14697   -5862.1661   -4666.7141   -3986.0535    2275.9635 
    1300     308.9761   -5966.4035   -4723.3618   -4045.5522    2266.4306 
    1350     296.8158   -5944.1418   -4750.0221   -4173.0136    1929.3759 
    1400    306.20733   -5983.5794   -4751.6767    -3864.862    2965.2924 
    1450    299.97419   -5947.8199   -4740.9937   -4077.4019    2218.8893 
    1500    296.11671   -5880.3095   -4689.0024   -4007.6354    2278.3255 
    1550    317.59864   -5886.2259   -4608.4948   -3937.6992    2242.9774 
    1600    303.29154   -5786.6645   -4566.4923   -3614.1853    3184.2828 
    1650    316.23754   -5861.1069   -4588.8516   -3669.2211    3075.0209 
    1700    305.26051   -5893.4042   -4665.3106   -3922.5023    2483.7704 
    1750    296.03695   -5938.3941   -4747.4079   -4205.7181    1811.2788 
    1800    299.41958    -5999.539   -4794.9441   -4171.2242    2085.5674 
    1850     306.6713   -6015.6854   -4781.9161   -4293.6879    1632.5163 
    1900     301.6451    -5929.445   -4715.8966   -4323.8679    1310.8486 
    1950    314.22677   -5895.1653   -4630.9996   -4111.3426    1737.6065 
    2000    321.08741   -5873.0268   -4581.2601   -3717.2206    2889.1377 
    2050    311.56964   -5854.4511   -4600.9753   -3728.8353     2916.224 
    2100    300.54859   -5882.9838   -4673.8468   -4340.5005    1114.6289 
    2150    297.98029   -5920.5463   -4721.7419   -3968.3186     2519.264 
    2200    296.41816   -5933.6503   -4741.1304   -4216.5738    1753.9898 
    2250    300.13869    -5931.801    -4724.313   -4141.7183     1948.055 
    2300    311.36896   -5945.4197   -4692.7513   -4419.9988    912.01786 
    2350    314.10698   -5922.3249   -4658.6411   -4113.8349    1821.6992 
    2400    311.58283   -5907.4374   -4653.9085   -4088.0042    1892.2463 
    2450    304.80128   -5911.8277   -4685.5817   -4111.7667    1918.6978 
    2500    305.32547    -5922.846   -4694.4911   -4050.7969    2152.3567 
    2550    299.98759   -5842.7427   -4635.8627   -3913.8286    2414.3063 
    2600    322.08296   -5863.6236   -4567.8516   -3814.8999    2517.6872 
    2650    304.02642   -5800.1359   -4577.0072   -3579.5797    3335.1549 
    2700    306.57914   -5854.0213   -4620.6228   -4132.8643    1630.9455 
    2750    300.10284   -5854.3331   -4646.9894   -4375.4403     907.9942 
    2800    306.33985   -5858.5057   -4626.0698   -4335.5313    971.48992 
    2850     314.4821   -5875.0335   -4609.8406   -3875.8215     2454.381 
    2900    307.56691   -5892.6555    -4655.283   -4223.0522    1445.2746 
    2950    299.57521   -5922.7146   -4717.4936   -4039.1731    2268.1387 
    3000    300.64975   -5966.9885   -4757.4445   -4491.2412    890.11907 
    3050      306.784   -5976.8667    -4742.644   -4405.3144    1127.9479 
    3100    298.72873   -5923.6939   -4721.8784   -4143.0427    1935.4859 
    3150    298.51884    -5895.341   -4694.3699   -4062.6586    2112.2888 
    3200    303.92769   -5876.7791   -4654.0477    -4060.906    1983.3214 
    3250    308.54757   -5867.5709   -4626.2532   -3961.5871    2222.4817 
    3300    306.28413   -5858.7499   -4626.5382   -3951.5313    2257.0587 
    3350    303.97968   -5884.2678   -4661.3272   -4049.6079    2045.4405 
    3400    306.03259   -5943.5913   -4712.3916   -4253.5258    1534.3355 
    3450    300.72963   -5995.5398   -4785.6745   -4627.6015    528.55774 
    3500    294.78676   -5996.5868   -4810.6302   -4473.0236    1128.8743 
    3550     309.7363   -6007.4928   -4761.3927   -4485.9178    921.12115 
    3600    319.02663   -5982.4727   -4698.9967   -4099.8377    2003.4417 
    3650    299.50113    -5904.073     -4699.15   -4416.0298    946.68531 
    3700    297.26832   -5917.7223   -4721.7821   -4279.7478     1478.055 
    3750    312.36929   -5991.5947   -4734.9018    -4687.085    159.88777 
    3800    311.81765   -6008.5962   -4754.1226   -4501.5649     844.4916 
    3850    299.95145   -5991.8964   -4785.1617   -4447.9478    1127.5612 
    3900    305.35023   -6034.6046     -4806.15   -4330.0676    1591.9038 
    3950    296.05476     -5981.71   -4790.6521   -4453.5772    1127.0965 
    4000    305.72713    -5994.183   -4764.2122    -4366.637    1329.3944 
    4050    297.96203   -5970.7218   -4771.9908   -4293.1267    1601.2049 
    4100    308.82181   -6024.3127   -4781.8917   -4554.0186    761.95237 
    4150    301.63469   -6024.1594   -4810.6529   -4785.7157    83.384001 
    4200    299.69197   -6029.0957   -4823.4049    -4564.499    865.71829 
    4250    307.92401   -6046.9452   -4808.1361   -4447.3977    1206.2214 
    4300     302.3152   -5976.3894   -4760.1452   -4337.5547    1413.0395 
    4350    300.99438   -5901.3245    -4690.394   -4064.6242     2092.422 
    4400    308.65492   -5876.1391   -4634.3895   -4248.7414    1289.5133 
    4450    309.86646   -5838.1102   -4591.4864   -3612.6501    3272.9905 
    4500    314.58988   -5828.4111   -4562.7845   -3747.3166    2726.7261 
    4550    311.55739   -5839.8882   -4586.4616   -4064.9496    1743.8093 
    4600    305.18598   -5867.0605   -4639.2668   -3960.9084    2268.2654 
    4650    308.06448   -5927.9341   -4688.5599   -4364.9361    1082.1192 
    4700    309.74238    -5975.196   -4729.0715   -4145.6703    1950.7516 
    4750    312.19298   -6041.5157   -4785.5321   -4669.9489    386.48215 
    4800    301.97756   -6060.5052   -4845.6193   -4848.6703    -10.20186 
    4850    297.71307    -6052.663   -4854.9335   -4676.7596    595.77031 
    4900    298.68159   -6006.6423   -4805.0164   -4089.1168    2393.7941 
    4950    306.66918   -5942.8641   -4709.1034   -4035.3174    2252.9765 
    5000    318.41964   -5928.1542   -4647.1202   -4132.8237    1719.6822 
    5050     304.1496   -5869.3156   -4645.6914   -4005.6286    2140.2141 
    5100    311.55554   -5921.4932   -4668.0741   -4031.5205    2128.4803 
    5150    295.09197   -5865.8695    -4678.685   -3732.2596    3164.6161 
    5200    300.55039   -5877.6358   -4668.4915    -3937.354    2444.7458 
    5250    297.29413   -5864.7846   -4668.7406   -4063.2199    2024.7141 
    5300    312.59151   -5921.4928   -4663.9059   -4307.2069    1192.7146 
    5350    307.74158   -5897.4919   -4659.4167   -4214.6615    1487.1532 
    5400    303.66227   -5929.1119   -4707.4482   -4455.3007       843.12 
    5450    302.27705   -5952.2205   -4736.1297   -4554.5186    607.26321 
    5500    302.62881   -5949.6299    -4732.124   -4439.6274    978.03752 
    5550    308.17602    -5942.429    -4702.606   -4549.3535    512.43937 
    5600    300.74054    -5851.688   -4641.7787   -3977.1564    2222.3353 
    5650    303.05243   -5823.6029   -4604.3926   -3633.8535    3245.2466 
    5700     311.2133    -5862.469   -4610.4267    -3701.029    3040.8047 
    5750    299.06414   -5800.3923   -4597.2274   -4090.4076    1694.6822 
    5800    312.64894   -5857.6128   -4599.7948   -4119.6065    1605.6328 
    5850    314.25219   -5895.4731   -4631.2051   -4023.8772    2030.7566 
    5900    304.42449   -5983.0809   -4758.3507   -4352.2648    1357.8525 
    5950    280.20052   -6031.9979   -4904.7232   -4741.5722    545.53725 
    6000    287.94884   -6089.9267   -4931.4797   -4590.4316    1140.3821 
    6050    300.25091   -6038.0142   -4830.0747   -4501.2433    1099.5324 
    6100    313.80514   -5983.4617   -4720.9922   -4611.8435    364.96686 
    6150    307.99556   -5911.0095   -4671.9126   -3894.9378    2598.0146 
    6200    305.27243   -5945.6618   -4717.5203   -4201.4257    1725.6947 
    6250    296.83091   -5978.1585   -4783.9781   -4765.9992    60.116792 
    6300    301.99255   -6013.3782    -4798.432    -4655.854    476.74608 
    6350    299.74289   -6004.2586   -4798.3629   -4302.4445    1658.2307 
    6400    312.54734   -6036.7895   -4779.3803   -4656.3936    411.23762 
    6450    313.81113   -6019.8102   -4757.3166   -4572.8697    616.74581 
    6500    303.26617   -5931.5752   -4711.5051   -4399.3375    1043.8125 
    6550    305.55203     -5898.13   -4668.8637   -4058.8763    2039.6493 
    6600    305.63736   -5880.4196   -4650.8099   -3716.9689    3122.5373 
    6650    312.81487   -5894.0371   -4635.5516   -4180.1164    1522.8646 
    6700     309.9793   -5895.7856   -4648.7079   -4049.8291    2002.5048 
    6750    295.79612   -5903.3229   -4713.3055   -4662.1975    170.89269 
    6800    308.43751   -5978.6717   -4737.7967   -4305.7423    1444.6849 
    6850    300.85881   -5965.0806   -4754.6956   -4218.4186    1793.1796 
    6900      296.821   -5981.2378   -4787.0972   -4587.7802    666.46756 
    6950    310.29548   -6035.6361   -4787.2863   -4605.5898    607.54896 
    7000     306.1752   -6047.7808   -4816.0073   -4716.3487     333.2343 
    7050    301.57779   -6057.4374   -4844.1599   -4635.6624    697.16469 
    7100    300.76246   -6045.2857   -4835.2883   -4772.6622    209.40632 
    7150    310.97798   -6028.9634   -4777.8678   -4683.7585    314.67865 
    7200    305.10854   -5943.8503   -4716.3681   -3886.4062    2775.1905 
    7250    306.93322   -5926.8291   -4692.0061   -4025.2893    2229.3387 
    7300    300.82411   -5901.6343   -4691.3888   -3847.1823    2822.8211 
    7350    309.32299   -5957.7627   -4713.3254   -4385.2376    1097.0456 
    7400    307.71156   -5982.4456   -4744.4913   -4529.4393    719.08164 
    7450    294.57361   -5954.4065   -4769.3074   -4506.1146     880.0526 
    7500    308.75984   -5971.7688   -4729.5972    -4173.229    1860.3598 
    7550    301.90923   -5918.1695   -4703.5585   -3995.3269     2368.154 
    7600    305.89308   -5913.1309   -4682.4925   -3782.5056    3009.3371 
    7650    297.84825   -5837.5711   -4639.2978   -3893.1443    2494.9556 
    7700    307.04054   -5816.0976   -4580.8428    -4129.842    1508.0369 
    7750    312.67261   -5809.1131   -4551.1999   -4013.2758    1798.6873 
    7800    300.94812   -5788.5591   -4577.8147   -3916.8581    2210.0781 
    7850    311.13707   -5906.1502   -4654.4147   -4257.3674    1327.6296 
    7900    305.35303   -5969.9951   -4741.5293   -4724.8776    55.679189 
    7950    305.40771   -6033.8218    -4805.136   -4654.8155    502.63537 
    8000    308.87951   -6081.4568   -4838.8036   -4242.3003    1994.5619 
    8050    304.84031   -6065.6406   -4839.2375    -4809.871    98.194473 
    8100    309.69625   -6101.2177   -4855.2787   -4242.7889    2048.0169 
    8150    294.34034   -6051.1744   -4867.0138   -4592.5163    917.85295 
    8200    307.30812   -6077.0656   -4840.7343   -4713.9723     423.8613 
    8250    314.81282   -6057.1191   -4790.5957   -4854.8871   -214.97465 
    8300    312.76082   -6027.4563   -4769.1882   -4514.9022    850.27065 
    8350    300.43476   -5997.4561   -4788.7771   -4718.2352    235.87476 
    8400     304.9745   -6007.6699   -4780.7271    -4472.656    1030.1145 
    8450    300.92917   -5922.9206   -4712.2524   -4238.1849    1585.1664 
    8500    304.77038   -5835.1362   -4609.0145   -4031.5595    1930.8689 
    8550    316.16999   -5841.9291   -4569.9456   -3885.5056    2288.6009 
    8600    299.95064   -5826.4296   -4619.6982   -3755.6935    2889.0213 
    8650    301.83194   -5886.9556   -4672.6556   -3986.7188    2293.6055 
    8700    303.08946   -5928.9535   -4709.5943   -4007.1504    2348.8014 
    8750    311.67515   -6000.0141   -4746.1138   -4345.0725    1340.9845 
    8800    305.59682   -5988.1073   -4758.6608   -4776.1745    -58.56173 
    8850    306.72409   -5993.6469   -4759.6652   -4767.0373   -24.650198 
    8900    302.92409   -6005.4957   -4786.8018   -4655.2461    439.89006 
    8950    306.84349   -6067.2081   -4832.7461   -4389.6112    1481.7351 
    9000    302.55835   -6087.8261   -4870.6036   -4816.3434    181.43284 
    9050    300.25241   -6070.3071   -4862.3617   -4495.1248    1227.9507 
    9100    299.31732   -6032.2752   -4828.0917   -4688.3745    467.18037 
    9150    311.80461   -6049.9167   -4795.4956   -4443.2989    1177.6602 
    9200    297.66895   -5972.8292   -4775.2773   -4553.3861    741.95002 
    9250    318.07388   -6060.1808   -4780.5377   -4753.2605    91.208428 
    9300     317.8714   -6097.5222   -4818.6938   -5016.1559   -660.26527 
    9350     293.3327   -6075.0086   -4894.9018   -4936.1851   -138.04127 
    9400    282.97408    -6064.011    -4925.578   -4833.8607    306.68057 
    9450    308.85864   -6113.6585   -4871.0893   -4427.1123    1484.5509 
    9500    312.82443   -6063.5437   -4805.0198    -4361.519    1482.9587 
    9550    305.94747   -5991.8468   -4760.9896   -4114.9162    2160.3122 
    9600    303.33128   -5967.6593   -4747.3273   -4254.3695     1648.331 
    9650    295.34208   -5931.5296   -4743.3389   -4182.8814    1874.0336 
    9700    295.16674   -5897.1917   -4709.7064   -4064.4738    2157.5011 
    9750    321.74887   -5919.6042   -4625.1764   -3998.0729    2096.8813 
    9800    317.27936   -5874.4581   -4598.0115    -3677.694    3077.3179 
    9850    298.16812   -5852.4436   -4652.8835   -3959.7572    2317.6455 
    9900    293.16073    -5865.483   -4686.0681   -3932.0361    2521.2995 
    9950    306.82324   -5914.2669   -4679.8863   -3929.6418    2508.6351 
   10000    310.49611   -5943.6863   -4694.5294   -4338.1334    1191.7012 
   10050    309.33191   -5988.0906   -4743.6174   -4344.0233    1336.1454 
   10100     304.9157   -6011.8541   -4785.1477   -4429.6712    1188.6271 
   10150     305.2765   -6043.4077   -4815.2498   -4811.5247    12.455745 
   10200    306.99631   -6071.5981   -4836.5212   -5082.3919   -822.13164 
   10250    294.70247   -6023.1978   -4837.5803   -4740.4095    324.91544 
   10300    312.14217   -6056.7353   -4800.9561   -4577.2094    748.15462 
   10350    309.73977   -5997.0081    -4750.894   -4376.1455     1253.068 
   10400    307.13571   -5935.4042   -4699.7666   -4114.6546    1956.4719 
   10450     312.7473   -5916.5056   -4658.2919   -4031.3298    2096.4088 
   10500    306.65247   -5911.6515    -4677.958   -4078.2322    2005.3371 
   10550    305.61531     -5939.11    -4709.589   -4193.2295    1726.5804 
   10600    302.54388   -5968.1065   -4750.9422   -4482.4199    897.87322 
   10650    306.43735   -6027.3575   -4794.5294   -4594.9258    667.42588 
   10700    301.03462     -6015.67   -4804.5777   -4332.8246    1577.4274 
   10750    306.33067   -6039.3166   -4806.9176   -4753.1375    179.82785 
   10800    303.59332   -6067.7902   -4846.4039   -4680.1325    555.97126 
   10850    301.33619   -6097.9866    -4885.681   -5008.4066   -410.36478 
   10900    306.59518   -6128.0996   -4894.6365   -4634.2225    870.76103 
   10950    305.52846   -6107.2204   -4878.0488   -5042.7949   -550.87077 
   11000    300.91988   -6050.0009   -4839.3701   -4515.4049     1083.261 
   11050    314.48063   -6051.9073   -4786.7203   -4664.7113    407.96862 
   11100    295.30266   -5959.5464   -4771.5142    -4491.845    935.14599 
   11150     301.5781   -5976.4707   -4763.1919    -4170.413    1982.1084 
   11200    303.72259   -5950.0649   -4728.1586   -3854.1615    2922.4336 
   11250    308.32268   -5935.6134   -4695.2004    -4053.668    2145.1285 
   11300    301.01309   -5860.9354   -4649.9296   -4058.3806    1977.9959 
   11350     315.3735   -5872.6729   -4603.8937   -4029.8732    1919.3851 
   11400    316.37266   -5874.0951   -4601.2963   -3727.2008    2922.7624 
   11450    304.39673    -5874.824   -4650.2055   -4050.0674    2006.7159 
   11500    300.06597   -5936.4282   -4729.2329   -4262.9725    1559.0611 
   11550    307.75122   -6006.9378   -4768.8239   -4551.0692    728.11864 
   11600    308.01736   -6018.3864   -4779.2018   -4633.3163    487.80532 
   11650    312.33446   -6048.3874   -4791.8346   -4748.4426    145.09247 
   11700    308.76104   -6103.1025   -4860.9259   -5033.4646   -576.92717 
   11750     289.6994   -6100.5187   -4935.0291   -5062.9034   -427.58055 
   11800    294.55005   -6120.4748   -4935.4705   -5129.8953   -650.10915 
   11850    308.58782   -6106.7914   -4865.3117   -4774.2937    304.34229 
   11900    318.27543   -6075.3618   -4794.9079   -5037.3796   -810.76623 
   11950    294.80466   -5949.5078   -4763.4792    -4316.701    1493.9177 
   12000    303.80442   -5945.8719   -4723.6364   -4268.6635    1521.3185 
   12050    306.86329   -5890.6554   -4656.1137   -3572.8723    3622.0957 
   12100    307.69916   -5851.6267   -4613.7223   -3738.5964    2926.2079 
   12150    298.39772   -5828.4644   -4627.9805   -4075.0388    1848.9026 
   12200    301.00315   -5824.3794   -4613.4136   -4054.9525    1867.3579 
   12250    303.51545   -5820.3973   -4599.3243   -3750.7936    2837.2803 
   12300    301.41955   -5807.8357   -4595.1947   -4044.4922    1841.4154 
   12350    307.73314   -5828.5633   -4590.5221   -3965.5377    2089.7959 
   12400    311.95115    -5873.133   -4618.1224   -4211.6201    1359.2448 
   12450    297.16177   -5858.4542   -4662.9427   -3993.8481    2237.2896 
   12500    307.58622   -5951.5226   -4714.0725     -4604.37    366.81817 
   12550    299.82073   -5939.6743   -4733.4655   -3860.2636    2919.7749 
   12600    302.42157   -5977.6279   -4760.9557   -4165.1426    1992.2542 
   12650    303.74515   -6032.1525   -4810.1553   -4694.7328    385.94497 
   12700    302.45083   -6076.0356   -4859.2456   -4923.8496   -216.01992 
   12750    305.31932    -6086.089   -4857.7588   -4650.2542    693.84511 
   12800    308.04378   -6083.2399   -4843.9489   -4844.5473   -2.0009535 
   12850    306.89597   -6067.1853   -4832.5121   -4994.6434   -542.12755 
   12900    296.08431   -6000.5573   -4809.3805   -4529.8522    934.67458 
   12950    305.14233   -6007.1004   -4779.4823   -4253.7419     1757.948 
   13000    307.79535    -5991.132   -4752.8406   -4248.4912    1686.4213 
   13050    300.18815   -5948.3701   -4740.6832   -4476.4929    883.38799 
   13100    304.13757   -5943.7302   -4720.1544   -4027.6848    2315.4498 
   13150    300.32279   -5877.3725   -4669.1439   -4293.6571    1255.5365 
   13200    318.39622   -5890.7756   -4609.8357   -4437.1091    577.55599 
   13250    298.11832   -5812.7495   -4613.3897   -3805.4906    2701.4178 
   13300    306.26231   -5871.2406   -4639.1167   -4319.3449    1069.2393 
   13350    305.50214   -5887.9213   -4658.8557   -4230.2865    1433.0308 
   13400    300.85613   -5918.6822   -4708.3079   -3968.8456    2472.5821 
   13450    304.48764   -5972.0384   -4747.0542   -4596.9381    501.95156 
   13500    308.36591   -5986.2251   -4745.6382   -4345.6062    1337.6096 
   13550    305.84745   -5963.3241   -4732.8693   -4280.7094    1511.9124 
   13600    323.03505   -6089.1295   -4789.5272   -4845.7733   -188.07305 
   13650    295.92156   -6115.7728   -4925.2508    -5213.925   -965.25615 
   13700    284.38995   -6138.3074   -4994.1782   -4744.0734    836.28961 
   13750    296.16204   -6119.7055   -4928.2161   -5045.2365    -391.2878 
   13800    318.92361   -6087.8419   -4804.7803   -4976.4483   -574.01578 
   13850    323.05658   -6043.7678   -4744.0789   -4659.1527    283.97278 
   13900    300.47586   -5989.1077   -4780.2633   -4383.3679    1327.1217 
   13950     290.3719   -5935.6151   -4767.4199    -4153.859    2051.5983 
   14000    302.64401   -5908.8299   -4691.2628   -3795.4032    2995.5364 
   14050    310.98511   -5902.5505   -4651.4263   -4068.1272    1950.4101 
   14100    309.04776   -5908.3833   -4665.0533   -4175.6542    1636.4314 
   14150    306.06579   -5956.4724   -4725.1391   -4522.9103    676.20405 
   14200    287.90463   -5909.6464   -4751.3773   -4367.7863    1282.6348 
   14250    306.92252   -5937.7184   -4702.9385   -4176.2471    1761.1276 
   14300    308.75135    -5916.653   -4674.5155   -4081.2674    1983.6774 
   14350    305.83735   -5887.1372    -4656.723   -3916.1401    2476.3289 
   14400    301.00985   -5849.8398   -4638.8471   -3773.7932    2892.5297 
   14450    314.82735   -5899.6613   -4633.0794   -4232.8914    1338.1315 
   14500    308.69724   -5902.7688    -4660.849   -4045.9454    2056.0877 
   14550    287.88765   -5838.4385   -4680.2377   -4003.4049    2263.1642 
   14600    293.59942   -5829.6911   -4648.5113   -3987.1163    2211.5437 
   14650    307.50598   -5812.0045   -4574.8772    -3783.721    2645.4338 
   14700    315.78398   -5795.9704   -4525.5398   -3563.7926    3215.8488 
   14750    300.04447   -5728.2315   -4521.1226   -3889.3526    2112.4849 
   14800    307.46528     -5790.15   -4553.1865   -3747.2412    2694.8849 
   14850    291.08974   -5790.6137   -4619.5305   -3904.1857     2391.939 
   14900    303.07653   -5892.5423   -4673.2351   -4007.2655    2226.8401 
   14950     302.8704   -5905.9938   -4687.5159   -4190.7038    1661.2189 
   15000     299.8651   -5928.3877   -4722.0004   -4438.5387    947.82693 
   15050    308.65304   -5949.7755   -4708.0335   -4103.1382    2022.6226 
   15100    315.37818    -6020.126   -4751.3281    -4669.744    272.79733 
   15150    297.88908   -6033.6716   -4835.2341   -4814.9322    67.884415 
   15200    298.83408   -6083.2535   -4881.0141   -4998.4043   -392.52407 
   15250    302.41953   -6094.3048   -4877.6408   -5119.0006    -807.0484 
   15300     306.8832    -6076.326   -4841.7043   -4681.3679    536.12588 
   15350     314.8261   -6099.5362   -4832.9593   -4839.6526   -22.381001 
   15400    288.27028   -6055.8069   -4896.0667   -4722.7305    579.59414 
   15450    302.56288   -6118.0685   -4900.8278   -4922.2335   -71.575382 
   15500    313.52769   -6128.5578   -4867.2046   -4832.7234    115.29662 
   15550    309.06387    -6125.268   -4881.8731   -4783.4407    329.13394 
   15600    304.24832    -6132.556   -4908.5345   -5101.7491   -646.06246 
   15650    300.95181    -6130.787   -4920.0278   -4839.3691     269.7031 
   15700    301.30408   -6111.4359   -4899.2594   -4804.2448    317.70592 
   15750    306.99158   -6112.2048    -4877.147   -5090.2448   -712.54716 
   15800     301.7083   -6070.7602   -4856.9575    -4863.703   -22.555194 
   15850    314.52088   -6104.0472   -4838.6982   -4868.6581   -100.17847 
   15900    297.94508   -6045.7468    -4847.084   -4431.0712    1391.0455 
   15950    305.35238   -6065.6863   -4837.2231   -4577.2014    869.44927 
   16000    298.56393   -5999.9404   -4798.7879   -4502.5507    990.54495 
   16050    307.00858   -5976.6592    -4741.533   -4142.5987    2002.6906 
   16100     299.7955   -5942.1659   -4736.0586   -4062.6415    2251.7427 
   16150    288.14444   -5880.0129    -4720.779   -4081.7848    2136.6413 
   16200    313.92252   -5925.4908   -4662.5491   -4182.3523    1605.6613 
   16250    312.08177   -5916.6233   -4661.0872   -4122.0004    1802.5751 
   16300    297.61017   -5865.0779   -4667.7625   -4241.3642    1425.7719 
   16350    306.81281   -5842.0768   -4607.7382   -4226.4246      1275.02 
   16400    317.37701   -5821.9491   -4545.1097   -3532.5626     3385.711 
   16450    315.01702   -5829.7194   -4562.3745   -3871.5176    2310.0572 
   16500    305.31506   -5883.5774   -4655.2644   -4379.0341    923.64684 
   16550    290.22865   -5899.8517   -4732.2328   -4127.5411    2021.9421 
   16600    308.31998   -5982.3195   -4741.9174   -4339.1608    1346.7201 
   16650     302.4468    -5942.249   -4725.4753   -4124.9716     2007.938 
   16700    318.90397   -6006.1719   -4723.1894   -4487.7139    787.37288 
   16750    309.80876   -5997.7982   -4751.4066   -4650.7014    336.73359 
   16800    303.59695   -6017.8442   -4796.4433   -4693.2326    345.11136 
   16850    298.88686   -6010.9732   -4808.5215     -4621.15    626.52463 
   16900    298.52079   -6009.0091   -4808.0301   -4204.3603     2018.525 
   16950     307.9561   -6039.1788   -4800.2407    -4455.649    1152.2306 
   17000    317.25407   -6076.3811   -4800.0363   -4942.3234    -475.7737 
   17050      302.263   -6036.6226   -4820.5884    -4711.874    363.51444 
   17100    303.80157    -6056.333    -4834.109   -4507.4589    1092.2383 
   17150    306.34342   -6092.6117   -4860.1615    -4865.609   -18.214986 
   17200    310.21602   -6158.7193   -4910.6893   -4343.9368    1895.0823 
   17250    298.92153   -6168.4669   -4965.8757   -4707.5196    863.87987 
   17300    299.41686   -6165.1802   -4960.5963   -4688.5961    909.50255 
   17350    303.98562   -6114.2987   -4891.3341   -4797.0405    315.29494 
   17400    310.36832    -6076.595   -4827.9522    -4769.369      195.888 
   17450    299.80152   -5964.1957   -4758.0642   -4506.1641    842.29267 
   17500    313.26057   -5947.3439   -4687.0653   -4112.0608    1922.6753 
   17550    311.17033   -5917.7621   -4665.8927   -4149.3819    1727.0866 
   17600    298.34817   -5894.1316    -4693.847   -4261.0479    1447.1749 
   17650    295.53379   -5890.8473   -4701.8853   -4088.4945    2051.0296 
   17700    301.32534   -5892.6366   -4680.3746   -3949.5909     2443.563 
   17750    309.92012   -5856.9653   -4610.1256   -3943.7679    2228.1382 
   17800    327.38795   -5887.4806   -4570.3662   -4190.1656    1271.2982 
   17850    316.26777   -5869.2348   -4596.8579   -4049.4565    1830.3771 
   17900    302.80102   -5854.6525   -4636.4538   -4281.3662    1187.3264 
   17950    301.76995   -5858.3336   -4644.2829   -3957.2863    2297.1495 
   18000    313.43144   -5930.2991   -4669.3331   -4621.8661    158.71825 
   18050     304.1795   -5955.9399   -4732.1953   -4327.2363    1354.0844 
   18100    311.96434   -6059.5908   -4804.5271   -4610.3556    649.26217 
   18150    296.28646   -6055.3791    -4863.389   -4814.5321    163.36554 
   18200     284.2301   -6048.5647   -4905.0786   -4644.8596    870.10912 
   18250    301.32442   -6099.8985   -4887.6402   -4862.9391    82.594471 
   18300    317.97313   -6147.9457    -4868.708   -5078.0425   -699.96383 
   18350    305.49681   -6118.7131   -4889.6689    -5056.746   -558.66525 
   18400    307.84783   -6156.4501   -4917.9475   -5222.9442   -1019.8346 
   18450    300.46889    -6117.753   -4908.9366   -4889.8305    63.886112 
   18500    304.24481   -6086.2056   -4862.1983    -4350.163    1712.1214 
   18550    300.12826   -6059.5483   -4852.1023   -4753.7162    328.97914 
   18600    297.02899   -6039.0651   -4844.0878   -4282.4181    1878.0868 
   18650    302.80258   -6042.3023   -4824.0973   -4453.9862    1237.5616 
   18700    310.81053   -6030.8239    -4780.402   -4379.8451    1339.3649 
   18750     316.6182   -6014.0773   -4740.2907   -4263.9633    1592.7228 
   18800    302.36518   -5945.9716   -4729.5263   -4298.2434    1442.1052 
   18850    302.56867   -5951.0676   -4733.8036   -4288.0162    1490.6045 
   18900    317.45381   -5995.2022   -4718.0538   -4563.5163    516.73562 
   18950    311.56182   -5983.5195   -4730.0752   -4180.5547    1837.4627 
   19000    308.67621   -6037.7429   -4795.9076   -4785.9286    33.367578 
   19050    302.23148   -6047.7356   -4831.8282   -4789.6471    141.04308 
   19100    296.85327   -5995.2277   -4800.9573    -4641.363     533.6445 
   19150    306.62673    -5967.706    -4734.116   -4182.7274    1843.7095 
   19200     303.1946   -5910.3543   -4690.5721   -4246.3318    1485.4315 
   19250    308.08908   -5904.0917   -4664.6185   -4264.6541    1337.3837 
   19300    303.15419   -5850.1671   -4630.5475   -4005.1412    2091.2065 
   19350    311.18762   -5867.7405   -4615.8016   -3810.0009    2694.4013 
   19400    312.17792   -5884.1694   -4628.2464    -4402.655    754.32289 
   19450     299.9219   -5845.9332   -4639.3174    -4160.324    1601.6373 
   19500    317.28668   -5933.4514   -4656.9754   -4162.7254    1652.6516 
   19550    298.50962   -5903.6321    -4702.698   -4148.3543    1853.5906 
   19600    286.17743   -5907.9375   -4756.6171   -4082.4441    2254.2706 
   19650     304.0014   -5977.2863   -4754.2582   -4608.4538    487.53446 
   19700    299.85035   -5937.0972   -4730.7692   -4263.8133     1561.387 
   19750    297.05719   -5887.6122   -4692.5214   -4074.9708     2064.939 
   19800    317.39737   -5906.9886   -4630.0673   -4288.0872     1143.498 
   19850    315.43653   -5870.2856   -4601.2529   -3864.2077       2464.5 
   19900    313.21236   -5914.5048   -4654.4202   -4190.9631    1549.6875 
   19950    305.46948   -5958.1455   -4729.2112   -4373.7618    1188.5363 
   20000    302.06717   -6024.6654    -4809.419    -4586.634    744.93879 
   20050    302.56703   -6069.0226   -4851.7652   -5157.1076   -1020.9907 
   20100    314.29304   -6103.1065   -4838.6742   -4952.1581   -379.46254 
   20150    310.55544   -6069.4753   -4820.0797   -4905.5203   -285.69271 
   20200    309.40512   -6076.6992   -4831.9314   -4714.8664    391.43689 
   20250    297.38643   -6054.6296   -4858.2143   -4585.4221    912.15056 
   20300    300.52335   -6022.0531   -4813.0176   -4831.8284   -62.898711 
   20350    299.98557   -5933.2087   -4726.3368   -4227.4351    1668.2059 
   20400     316.0175   -5931.6349   -4660.2649    -3981.261    2270.4237 
   20450    310.32551   -5908.1777   -4659.7072   -3941.6337    2401.0631 
   20500    308.41263   -5942.2024   -4701.4276   -4563.7305    460.42576 
   20550    299.12476   -5921.0918    -4717.683    -4249.605    1565.1388 
   20600    303.05147   -5909.5868   -4690.3805   -4072.7326    2065.2643 
   20650    300.73035    -5813.209   -4603.3407    -3774.232    2772.3377 
   20700    306.34913   -5776.9938   -4544.5206   -3445.2792    3675.5957 
   20750    304.51683   -5757.1418   -4532.0402   -4039.2726    1647.6947 
   20800    306.24774   -5798.8475   -4566.7822   -3944.5058     2080.741 
   20850    300.62882   -5842.5132   -4633.0534   -3864.1932    2570.8814 
   20900    299.96044   -5920.7464   -4713.9756   -4219.3146     1654.026 
   20950    304.72234   -5991.8787   -4765.9503   -4500.7295     886.8336 
   21000    304.28339   -6021.2279   -4797.0654   -4636.3951    537.24221 
   21050    304.71057   -6044.4863   -4818.6052   -4435.3235    1281.6007 
   21100    293.77364   -6033.5766   -4851.6958    -4652.823    664.98233 
   21150    302.33306   -6107.9954   -4891.6793   -5076.8662   -619.22002 
   21200    306.11556   -6138.8885    -4907.355    -5620.509   -2384.6133 
   21250    306.82516   -6156.2233    -4921.835   -5172.7694   -839.06359 
   21300    306.20115   -6171.6633   -4939.7855   -5025.8802   -287.87964 
   21350    303.85452    -6166.527   -4944.0899   -5225.8015    -941.9749 
   21400    303.91505   -6128.6834   -4906.0028   -5122.0021   -722.24904 
   21450    312.57362   -6101.2934   -4843.7785   -4906.8728   -210.97219 
   21500    310.01893   -6103.1676   -4855.9304   -4889.4422   -112.05517 
   21550    303.19656   -6118.6622   -4898.8722   -4983.7087   -283.67262 
   21600    307.41534    -6162.232   -4925.4694   -5199.9581   -917.82335 
   21650    304.36464   -6173.1293     -4948.64   -5060.7468   -374.85796 
   21700    302.60957   -6154.8832   -4937.4547   -5215.7569   -930.57498 
   21750    313.20651   -6169.0626   -4909.0015   -5480.0692   -1909.5114 
   21800    293.92972   -6101.0641   -4918.5555    -5110.287   -641.10357 
   21850     293.8028   -6085.7079   -4903.7098   -4600.8905    1012.5542 
   21900    300.91118   -6070.0001   -4859.4044   -4665.1041    649.69287 
   21950    292.90809   -5984.0761   -4805.6776    -4381.061    1419.8146 
   22000    307.85737   -5978.3966   -4739.8557   -4149.0706    1975.4416 
   22050    308.65342   -5950.0015   -4708.2579   -3902.1662    2695.3747 
   22100    296.61594   -5900.9838   -4707.6682   -3888.3709    2739.5309 
   22150    307.83125   -5963.1983   -4724.7624   -4110.5023    2053.9362 
   22200    301.46375   -5975.1617   -4762.3429   -4378.2013    1284.4758 
   22250     309.8882    -6056.002   -4809.2908   -4855.9822   -156.12437 
   22300    297.66965   -6025.2008    -4827.646   -4541.3609    957.26766 
   22350    304.66899   -6038.4814   -4812.7675   -4713.9569    330.39886 
   22400    310.37473   -6054.4447   -4805.7761   -4566.1433    801.27398 
   22450    307.18961   -6044.7512   -4808.8967   -4704.2374    349.95526 
   22500    307.00001   -6070.3409   -4835.2492   -5367.5994   -1780.0496 
   22550    293.05236   -6050.4061   -4871.4272   -4724.7448    490.47011 
   22600    299.99607   -6080.1959   -4873.2817   -4890.6894   -58.207026 
   22650    304.64869   -6088.2609   -4862.6287   -4975.1719   -376.31686 
   22700    307.45768   -6076.1183   -4839.1853   -5000.7926   -540.37546 
   22750    291.82687   -5975.9735   -4801.9249   -4033.3009    2570.0916 
   22800    307.03142   -5960.8532   -4725.6351   -4489.0644    791.03492 
   22850    317.93537   -5942.9182   -4663.8324   -4272.3422    1309.0482 
   22900    305.74663    -5912.332   -4682.2828   -3973.7263    2369.2406 
   22950     298.0362   -5884.0173   -4684.9878   -3980.8091    2354.6024 
   23000     301.8951   -5879.6616   -4665.1075   -4157.9441     1695.831 
   23050    306.42191    -5881.631    -4648.865   -4153.9278    1654.9496 
   23100    309.66455   -5902.5433   -4656.7319   -4023.4506    2117.5385 
   23150    291.92748   -5882.0442   -4707.5908   -4185.8276    1744.6491 
   23200     289.0825   -5860.7822   -4697.7744   -4130.9576    1895.2976 
   23250    300.62182   -5819.7196    -4610.288   -4035.6342    1921.5026 
   23300    317.25575   -5820.6097   -4544.2582   -3941.0394    2017.0169 
   23350    309.78663   -5815.1858   -4568.8832   -3739.3392    2773.7934 
   23400    299.72308   -5848.0221   -4642.2062     -4260.99    1274.6941 
   23450    291.75391   -5862.8276   -4689.0725   -4222.9559    1558.5806 
   23500    322.23525   -5966.3363   -4669.9516   -4601.2652    229.67063 
   23550     304.6041   -5899.2889   -4673.8361     -4030.09    2152.5303 
   23600    310.55714   -5964.7535    -4715.351    -4907.187   -641.45284 
   23650    306.84387   -5998.7166    -4764.253    -4673.436    303.66994 
   23700    300.49742   -5989.8217   -4780.8906   -4585.6551    652.81971 
   23750     298.3903    -5961.369    -4760.915   -4618.5788    475.93791 
   23800    303.96315   -5942.5306   -4719.6565   -4546.3451    579.51103 
   23850    297.23151   -5861.7244   -4665.9324   -4042.8279    2083.5097 
   23900    322.32676   -5887.6614   -4590.9086   -4025.0076    1892.2355 
   23950    317.21028   -5851.4626    -4575.294   -3889.1936    2294.1526 
   24000    306.63644   -5838.4361    -4604.807   -3863.1685    2479.8587 
   24050    302.84288   -5859.1742   -4640.8071   -3995.3782    2158.1572 
   24100    301.95651    -5852.183   -4637.3818   -4185.9038    1509.6324 
   24150    313.14427   -5877.5856   -4617.7749   -4155.4482    1545.9081 
   24200    308.47743   -5877.6303   -4636.5948   -4297.3329    1134.4093 
   24250    313.73823   -5891.4631   -4629.2629   -4294.1077    1120.6773 
   24300    306.51315   -5851.1289   -4617.9959   -4186.2493    1443.6555 
   24350    310.82254   -5877.1102     -4626.64   -4273.0558    1182.2997 
   24400    316.23784   -5943.9852   -4671.7287   -4519.8344    507.89764 
   24450    301.38275    -5973.161   -4760.6681   -4334.2188    1425.9426 
   24500    293.93623   -5992.9663   -4810.4315   -4754.3141    187.64283 
   24550    308.39745   -6043.7397   -4803.0259   -4670.5583    442.93941 
   24600    299.55664   -5980.8968   -4775.7505   -4310.7524    1554.8403 
   24650     291.9926   -5899.7333   -4725.0179   -4382.7423    1144.4864 
   24700    316.11076   -5928.8907   -4657.1455   -4266.0187    1307.8329 
   24750    317.11196   -5926.3118   -4650.5387   -4398.6208    842.35222 
   24800    303.42294   -5912.4765   -4691.7757   -4374.4033    1061.2161 
   24850    306.23545   -5930.0153   -4697.9995   -4424.6376    914.05579 
   24900    312.28947   -5932.0684   -4675.6966   -4347.3879    1097.7845 
   24950    308.23863   -5946.1034   -4706.0286   -4274.4887    1442.9645 
   25000    307.73087   -6044.2432   -4806.2112   -4721.7531    282.40713 
   25050    293.35576   -6105.7922   -4925.5927   -5454.1611   -1767.4039 
   25100    296.81216   -6172.9453   -4978.8404   -5490.0012   -1709.1974 
   25150    298.15936   -6175.0641   -4975.5392   -5267.2897   -975.54272 
   25200    312.84251   -6192.8265   -4934.2298   -5076.1468   -474.53593 
   25250    309.37015   -6149.1208   -4904.4938   -4874.2417    101.15551 
   25300    308.48719   -6166.4071   -4925.3323   -5029.4014   -347.98198 
   25350    299.25197    -6188.599   -4984.6784   -5152.7096   -561.85546 
   25400    292.91066   -6180.5884   -5002.1795   -5347.0213    -1153.067 
   25450    294.11574   -6126.1493   -4942.8923   -5071.5059   -430.05245 
   25500    319.40761   -6132.5643   -4847.5555    -4533.981     1048.517 
   25550    315.90298   -6105.5753   -4834.6661   -4930.5427   -320.58812 
   25600    295.99057   -6101.6798   -4910.8801   -5100.4238   -633.78819 
   25650    301.16805   -6185.4213   -4973.7921   -4997.9863   -80.899644 
   25700    298.53427   -6207.1802    -5006.147   -4995.3015    36.264853 
   25750    305.64429   -6203.3233   -4973.6858   -5000.5298   -89.759784 
   25800    304.86996    -6130.319   -4903.7966   -5240.6032   -1126.1991 
   25850    311.45149   -6087.4549   -4834.4545   -4885.4231   -170.42687 
   25900    309.45263   -6061.4686   -4816.5097   -4824.7623   -27.594528 
   25950    294.90967   -5994.6534   -4808.2024   -4743.5136    216.30337 
   26000    294.91466   -5974.0877   -4787.6166   -4356.4981    1441.5552 
   26050    315.09784   -6020.2339   -4752.5638   -4570.1892    609.81616 
   26100    308.19135   -5973.4568   -4733.5722    -4385.848    1162.7051 
   26150     306.8649   -5968.9187   -4734.3706   -4236.6631    1664.2128 
   26200     301.1914   -5970.8951    -4759.172   -4237.1829    1745.4045 
   26250    318.59494   -6068.6122   -4786.8729   -4780.6829    20.697829 
   26300    297.73489   -6039.5784   -4841.7612   -4588.8577    845.64795 
   26350    309.12906   -6135.3459   -4891.6888   -5113.3732   -741.25879 
   26400    293.63803   -6105.6782    -4924.343   -5408.1442   -1617.7134 
   26450    297.71405     -6095.04   -4897.3066   -4931.6635   -114.88118 
   26500    313.15248   -6070.4031   -4810.5594    -4858.663    -160.8467 
   26550     305.9371   -5961.1713   -4730.3557   -4454.6472    921.90227 
   26600    311.11482   -5946.5494   -4694.9034   -4098.5202    1994.1602 
   26650    318.52291   -5976.5795     -4695.13   -4349.4267    1155.9478 
   26700    312.41576   -5977.0698   -4720.1899    -4613.817    355.68527 
   26750    299.69729   -5966.6075   -4760.8953   -4470.1907    972.04554 
   26800    308.92712   -6061.4732   -4818.6285   -4755.9712    209.51105 
   26850    307.44814   -6113.3046     -4876.41    -5155.294   -932.52015 
   26900    302.57149   -6147.4878   -4930.2124   -5281.4535   -1174.4648 
   26950    302.83662   -6185.5085   -4967.1665   -4988.9766   -72.927805 
   27000    301.63667   -6193.2103   -4979.6958   -5155.2061   -586.86365 
   27050    304.55316   -6169.6943   -4944.4465   -5212.3737    -895.8831 
   27100    307.82022   -6136.8767   -4898.4852   -5020.8907   -409.29428 
   27150    307.33331   -6095.1674   -4858.7348   -4987.5096   -430.59178 
   27200    309.86494    -6096.525   -4849.9074   -4940.4056   -302.60395 
   27250    307.18783   -6108.3675   -4872.5202   -5041.8791   -566.29504 
   27300    312.02437   -6144.7839   -4889.4787    -5100.421   -705.33994 
   27350    312.84543   -6182.0422   -4923.4338   -5468.0645   -1821.1125 
   27400    298.31645   -6134.5799    -4934.423   -5199.4357    -886.1381 
   27450    307.18917   -6143.1332   -4907.2805   -5145.1116   -795.24932 
   27500     307.8118   -6139.8505   -4901.4929   -5005.9277   -349.20461 
   27550    313.96797   -6173.0953   -4909.9707   -5316.0316   -1357.7687 
   27600    311.42648   -6195.1207   -4942.2209   -5349.1577   -1360.6975 
   27650     290.2961   -6124.0906   -4956.2003   -4940.6083    52.136039 
   27700    319.73468   -6211.7121   -4925.3875   -5097.3444   -574.98195 
   27750    305.52868   -6156.0702   -4926.8978   -5086.7565   -534.52861 
   27800    304.02815   -6190.6289   -4967.4933   -5269.5648   -1010.0536 
   27850    300.66762   -6222.4136   -5012.7977    -4871.494    472.48512 
   27900    294.88397    -6190.469   -5004.1212   -5397.7922   -1316.3398 
   27950    302.58285   -6165.1333   -4947.8123   -4903.8765     146.9104 
   28000    301.88397   -6111.7805   -4897.2711   -4488.6371    1366.3725 
   28050    294.45544   -6069.5195   -4884.8958   -4591.7557     980.1894 
   28100    314.20449   -6121.4296   -4857.3535   -4710.4451    491.22611 
   28150    304.57647   -6066.8242   -4841.4827   -4697.4236     481.6985 
   28200    293.47563   -6015.9076   -4835.2258   -4916.5121   -271.80149 
   28250    300.88405   -6018.8612   -4808.3746   -4566.1283    810.01258 
   28300    312.28662   -6047.0365   -4790.6762   -4534.1099    857.89532 
   28350    312.34742   -6034.8133   -4778.2084   -4624.6455    513.47715 
   28400    304.23235   -6009.9614   -4786.0042   -4078.2317    2366.6188 
   28450    296.14193   -6010.2612   -4818.8526   -4119.0779    2339.8762 
   28500    293.03029   -6017.5216   -4838.6314   -4486.9734    1175.8587 
   28550    292.33376   -5971.3789   -4795.2909   -4449.6093    1155.8751 
   28600    314.09746   -5963.3421   -4699.6967   -4177.1071    1747.4125 
   28650    320.76139   -5935.3545   -4644.8993   -4014.5132     2107.858 
   28700    312.64854   -5931.6976   -4673.8813   -4428.0266    822.07838 
   28750    290.27962   -5899.9135   -4732.0896   -3991.3267    2476.9307 
   28800     299.2689   -5980.3411   -4776.3524   -4433.2876    1147.1253 
   28850    300.02367   -6004.2617   -4797.2365   -4500.6275    991.78817 
   28900    309.25806   -6048.9299   -4804.7538   -5035.6394   -772.02526 
   28950    293.53951   -6040.9029   -4859.9641   -4740.7884    398.49451 
   29000    299.01173   -6114.5723   -4911.6182   -4864.1003    158.88833 
   29050    294.37738   -6142.9504   -4958.6408   -4964.2153   -18.639841 
   29100    301.78071   -6182.8767   -4968.7827    -5394.284   -1422.7727 
   29150    306.35093   -6199.8198   -4967.3394   -5629.6824   -2214.7138 
   29200      307.722   -6219.9833   -4981.9869     -5117.99   -454.76132 
   29250    303.04698   -6214.1866   -4994.9983   -5266.2295   -906.93098 
   29300    297.16232   -6192.2079   -4996.6942   -5318.4103   -1075.7404 
   29350    302.62842   -6169.4253    -4951.921   -4896.9346     183.8609 
   29400    308.34492   -6108.7729   -4868.2705   -4843.8764     81.56794 
   29450    320.22593   -6094.4914   -4806.1905   -4695.0476    371.63472 
   29500    303.96151   -6030.2829   -4807.4154   -4732.4231    250.75576 
   29550    312.93113   -6074.1768   -4815.2236   -4567.6325    827.88425 
   29600    316.09961   -6123.3109   -4851.6106   -5053.3528   -674.57687 
   29650    299.38678   -6115.5278   -4911.0649   -5187.0612   -922.86434 
   29700     293.6249   -6111.7428   -4930.4605   -4909.0876    71.465806 
   29750    296.50565   -6088.9405   -4896.0687   -4758.7154     459.2759 
   29800    308.39971   -6060.4249    -4819.702   -4424.2385    1322.3336 
   29850    310.05435   -6000.5955   -4753.2159   -4499.0304    849.93467 
   29900    314.41651   -5980.5622   -4715.6331   -4411.8284     1015.849 
   29950    305.12472   -5902.4774   -4674.9302   -4171.3041    1684.0029 
   30000    300.21952   -5813.4934   -4605.6802   -3503.5213    3685.3511 
   30050    313.21356   -5817.6845    -4557.595   -3869.2425    2301.6832 
   30100    311.25389   -5784.2503   -4532.0448   -3723.3616    2704.0399 
   30150    309.01578    -5801.333   -4558.1317   -4206.2685    1176.5449 
   30200    301.46606   -5820.2325   -4607.4044   -4016.7808    1974.9017 
   30250    305.57431    -5844.399    -4615.043   -4135.5493    1603.3101 
   30300     306.2018   -5830.7865    -4598.906   -4083.7004    1722.7223 
   30350    303.77253   -5793.7175   -4571.6103     -3888.37    2284.5893 
   30400    324.50772   -5864.7048   -4559.1778   -3919.4072    2139.2371 
   30450    309.20607   -5874.5146   -4630.5476   -4075.2873    1856.6554 
   30500    298.66397   -5931.2998   -4729.7448   -4535.7974    648.51282 
   30550    297.44395   -5955.0687   -4758.4219   -4649.0533    365.70217 
   30600    305.53147    -5950.007   -4720.8234    -4009.029    2380.0672 
   30650     303.3034   -5867.0383   -4646.8184   -3892.0086    2523.9003 
   30700    313.27646   -5871.1961   -4610.8536   -3974.3349    2128.3637 
   30750    310.50339    -5868.153   -4618.9668    -3936.467    2282.1133 
   30800    317.71342   -5947.6065   -4669.4136   -4314.4962    1186.7577 
   30850    300.28194   -5946.3297   -4738.2654   -4464.0238      916.997 
   30900    303.58253    -5968.845   -4747.5021   -4350.7721    1326.5688 
   30950     309.9593   -5987.7508   -4740.7535   -4242.7273    1665.2786 
   31000    300.24667   -5948.8551   -4740.9328   -4603.8404     458.4035 
   31050    303.15555   -5921.7589   -4702.1339   -4124.3609    1931.9322 
   31100    312.61037   -5926.2182   -4668.5554   -3906.9052     2546.773 
   31150    301.70259   -5902.9867    -4689.207   -4073.1596    2059.9126 
   31200    301.74304   -5905.4546   -4691.5122   -3861.6235    2774.9459 
   31250    304.82694   -5877.2435   -4650.8943   -4021.1709    2105.6415 
   31300    311.95491   -5851.7666   -4596.7408   -4273.2069    1081.8186 
   31350    316.44648   -5829.8916   -4556.7958    -4135.548    1408.5501 
   31400    308.45752    -5813.527   -4572.5716   -4144.2007    1432.3679 
   31450    302.85207   -5844.1966   -4625.7925     -4116.95    1701.4454 
   31500    309.67128   -5937.4447   -4691.6062   -4071.7081    2072.7883 
   31550    310.31814   -6016.5876   -4768.1467   -4655.0802    378.06682 
   31600    299.82038   -6082.8968   -4876.6894   -4778.9916    326.67787 
   31650    301.73625   -6145.4683   -4931.5533   -5374.0072   -1479.4582 
   31700    298.88754   -6122.7011   -4920.2466   -4889.8675    101.58046 
   31750    309.09076   -6108.4888   -4864.9858   -5004.2812    -465.7699 
   31800    305.17026   -6028.0908   -4800.3603   -4752.9726    158.45313 
   31850    304.34235   -5983.3884   -4758.9887   -4252.8304    1692.4702 
   31900    308.21939   -6008.9451   -4768.9477   -4169.9012    2003.0657 
   31950    298.61516   -6009.4874   -4808.1288   -4498.8471    1034.1627 
   32000    286.58331   -5974.5733     -4821.62   -4641.5734    602.03198 
   32050    314.81994   -6070.1956   -4803.6436    -5044.913    -806.7462 
   32100    306.94114   -6041.2038   -4806.3489   -4976.1964   -567.92875 
   32150    299.40016   -5993.6366   -4789.1198   -4739.2622    166.71151 
   32200    302.43663   -5936.7376   -4720.0048    -4317.145    1347.0653 
   32250    302.22718   -5848.3591   -4632.4689   -3986.0268     2161.545 
   32300    319.42692   -5882.1217   -4597.0353   -4021.4362     1924.663 
   32350    314.90107   -5894.8294   -4627.9509     -4369.57    863.96312 
   32400    289.78105   -5835.8169   -4669.9988   -3765.3592    3024.8946 
   32450    301.42277   -5926.7392   -4714.0852   -3805.9121      3036.71 
   32500    302.48259   -5973.7536   -4756.8359   -4215.1527    1811.2569 
   32550    308.12197   -6030.5261   -4790.9206   -4746.6099     148.1643 
   32600    296.46139   -5984.4294   -4791.7356   -4514.7536    926.16052 
   32650    309.06257    -6005.447   -4762.0574    -4259.637    1679.9715 
   32700     315.7431   -6018.8157   -4748.5497    -4729.843     62.55056 
   32750    311.24725   -5984.9096   -4732.7308    -4689.746    143.73084 
   32800    312.58849   -5994.9399   -4737.3652   -4458.3525    932.95052 
   32850    297.39286   -5956.2303   -4759.7891   -4147.5586      2047.15 
   32900    301.53647    -5984.659   -4771.5476   -4421.3909    1170.8389 
   32950    299.90851    -5965.581   -4759.0191   -4564.9909    648.78312 
   33000    310.40802   -6008.6644   -4759.8619   -4465.6471    983.78249 
   33050     304.3446   -5989.9038   -4765.4951   -4575.9435    633.81442 
   33100    300.58548   -5950.6673   -4741.3818   -4002.1127     2471.936 
   33150    309.48011   -5933.7539   -4688.6845   -3859.7679    2771.6953 
   33200    303.62329   -5866.0348   -4644.5279   -3722.7171    3082.3111 
   33250     314.2898   -5892.2457   -4627.8264   -4047.1926    1941.4982 
   33300     306.2169   -5902.8811   -4670.9399   -3851.2373    2740.8859 
   33350    312.96104   -6002.0689   -4742.9953   -4581.7175    539.27384 
   33400    312.02658   -6051.6036   -4796.2894    -4879.173    -277.1424 
   33450    302.38662   -6085.4161   -4868.8845   -4602.8875    889.42939 
   33500     303.2653   -6164.5471   -4944.4805   -5025.2913   -270.21166 
   33550    301.43893   -6229.9223   -5017.2033   -4861.3079    521.27629 
   33600    292.34654   -6222.8214   -5046.6821   -5249.1085   -676.86473 
   33650    299.01658   -6200.4397   -4997.4662   -5101.5671   -348.08819 
   33700    305.69296   -6153.6004   -4923.7671   -4838.3341    285.66718 
   33750    315.11688   -6147.0434   -4879.2967   -5052.3599    -578.6812 
   33800    305.57373   -6114.3658   -4885.0121   -4995.1558   -368.29364 
   33850    297.07543   -6088.0643   -4892.9001   -4877.5398    51.361087 
   33900    311.49967   -6119.7544   -4866.5601   -5191.7749   -1087.4391 
   33950    305.75364   -6100.6626   -4870.5852   -4774.2762     322.0337 
   34000    294.96068   -6057.1179   -4870.4616   -4852.2543    60.880766 
   34050    308.66542   -6066.8418     -4825.05   -4846.9237   -73.140532 
   34100    317.56475   -6071.1312   -4793.5365   -4994.4978   -671.96568 
   34150    309.78273   -6055.4586   -4809.1717   -4709.3408    333.81028 
   34200    305.44993   -6080.2267   -4851.3711   -4844.2228    23.902217 
   34250    304.73819   -6129.2082   -4903.2161    -5188.253   -953.09433 
   34300    304.76907   -6179.9602   -4953.8438   -5370.8371   -1394.3242 
   34350    302.54597   -6200.6876   -4983.5149   -5476.1807   -1647.3547 
   34400    305.27773   -6207.8932   -4979.7304   -5221.9841    -810.0375 
   34450    309.54211   -6217.0234   -4971.7046   -5233.3211   -874.78211 
   34500    302.15593   -6181.2274   -4965.6239   -5260.7474   -986.82116 
   34550    305.99164   -6203.3269    -4972.292   -5234.0518     -875.261 
   34600    303.59633   -6199.6327   -4978.2343   -5283.4955   -1020.7191 
   34650    298.81155    -6167.083   -4964.9342   -4921.9499    143.72937 
   34700    302.43318   -6156.5665   -4939.8476   -4876.8567    210.62607 
   34750    304.38885   -6143.3228    -4918.736   -5335.6081   -1393.9188 
   34800    310.08344   -6146.3779   -4898.8813   -5094.7661   -654.99138 
   34850    318.82671   -6169.4298   -4886.7581   -5118.2376   -774.01102 
   34900    304.44166   -6139.9362   -4915.1369   -5203.1235   -962.95692 
   34950     297.7152     -6148.99    -4951.252   -5201.0254   -835.18139 
   35000    298.23931   -6150.1375    -4950.291   -5492.5645   -1813.2308 
   35050    314.68266   -6157.3305   -4891.3307   -5191.9848   -1005.3142 
   35100    309.46546   -6088.3409   -4843.3304   -4695.0935    495.66816 
   35150    309.21351   -6044.1561   -4800.1592   -4869.4951   -231.84214 
   35200    298.80405   -5950.9073   -4748.7887   -4462.9601     955.7412 
   35250    305.70847   -5877.1316   -4647.2359   -4161.9867    1622.5552 
   35300    312.01161   -5799.4686   -4544.2147   -3765.5558    2603.6457 
   35350    322.67857   -5819.3443   -4521.1761   -3865.9284    2190.9888 
   35400    304.11924    -5805.416   -4581.9139   -4055.6286    1759.7699 
   35450    301.68298    -5855.817   -4642.1162   -4439.4461    677.67937 
   35500    307.22517   -5896.4922   -4660.4946   -3806.1154    2856.8363 
   35550    299.66938   -5866.2632   -4660.6633   -4053.8301    2029.1026 
   35600    311.39211   -5917.1245   -4664.3629    -4206.921    1529.5746 
   35650    310.76756   -5918.9607   -4668.7117   -4400.7375    896.04041 
   35700    301.39168   -5895.3223   -4682.7934   -4354.8256    1096.6447 
   35750    306.95138   -5962.4758   -4727.5797   -4158.0986    1904.2064 
   35800    303.10352    -6022.882   -4803.4662   -4644.5903    531.24225 
   35850    301.26759   -6097.3571   -4885.3275   -4761.4407    414.24724 
   35900    294.15993   -6133.0197   -4949.5849   -4802.2755    492.56704 
   35950    301.47756   -6192.7339   -4979.8596   -5376.5004   -1326.2703 
   36000    296.67706   -6178.6166   -4985.0552   -5380.4922   -1322.2452 
   36050    304.90171   -6189.0287   -4962.3786   -5414.4164   -1511.5044 
   36100    299.77639   -6142.3952   -4936.3649   -5034.2629   -327.34723 
   36150    297.55629   -6073.1771   -4876.0784    -5171.158   -986.67443 
   36200    306.63793   -6041.1144   -4807.4794   -4637.5801    568.10181 
   36250    303.08916   -5980.7903   -4761.4323   -4117.8622    2151.9416 
   36300    308.25295    -6023.868   -4783.7356   -4423.4461    1204.7203 
   36350     309.9081   -6064.8427   -4818.0514   -4949.8063   -440.55625 
   36400    307.89212    -6088.676   -4849.9953    -4805.101    150.11565 
   36450    302.27954   -6094.3579   -4878.2571   -4783.2232    317.77046 
   36500    313.23254   -6168.5397   -4908.3738   -5415.1753   -1694.6209 
   36550    293.19229   -6100.3735   -4920.8316   -4791.4266    432.69897 
   36600     319.7234   -6191.7019   -4905.4228   -5052.3342   -491.23618 
   36650    309.29194   -6169.3464    -4925.034   -5340.7212   -1389.9567 
   36700    308.19021   -6231.1128   -4991.2328   -5877.8161   -2964.5187 
   36750    297.34809   -6248.4374   -5052.1763   -5217.7637    -553.6841 
   36800    299.41655   -6250.3067    -5045.724   -5010.5497    117.61459 
   36850    302.13751   -6191.7378   -4976.2084   -5209.0694   -778.63062 
   36900    314.36499   -6175.5611   -4910.8393   -5564.5176   -2185.7412 
   36950    313.42996    -6174.817   -4913.8569    -5440.774   -1761.8824 
   37000    311.13509    -6222.397   -4970.6694   -5567.3061   -1995.0079 
   37050    298.85021   -6242.3201   -5040.0158   -5449.4313   -1368.9858 
   37100    292.34101   -6237.3996   -5061.2824   -5645.0309   -1951.9129 
   37150    301.74795   -6216.3295   -5002.3674   -5446.4562    -1484.925 
   37200    314.02006   -6179.1939   -4915.8598   -5344.6492   -1433.7673 
   37250    316.14992   -6122.8664   -4850.9637   -4596.8086    849.83268 
   37300    307.03483   -6084.9497   -4849.7179   -4384.0667    1557.0242 
   37350    295.61512   -6054.6179   -4865.3287   -4788.9042    255.54488 
   37400    323.49851    -6170.779   -4869.3122   -5373.9198   -1687.2853 
   37450     305.8761   -6162.9871    -4932.417   -5222.5017   -969.97258 
   37500    301.70546   -6201.9233   -4988.1321   -5396.0359    -1363.931 
   37550    301.11448   -6244.6391   -5033.2255   -5445.4276   -1378.3036 
   37600    298.58193   -6249.5845   -5048.3596   -5451.9799   -1349.6083 
   37650    305.86136   -6242.5227   -5012.0119   -5437.8897   -1424.0319 
   37700    311.85063   -6217.8611   -4963.2549   -4981.9448    -62.49456 
   37750      318.845   -6239.8449   -4957.0996   -5176.5223   -733.69604 
   37800    291.93914   -6181.1034   -5006.6031   -5178.7423   -575.59169 
   37850    300.99164   -6240.0745    -5029.155   -5116.3774   -291.65036 
   37900     305.9474   -6265.9031   -5035.0462   -5126.6087   -306.16281 
   37950     304.1476    -6229.896   -5006.2798   -5423.3643   -1394.6289 
   38000    308.35993    -6209.766   -4969.2032   -4949.8633    64.667727 
   38050    299.49544   -6164.8611    -4959.961   -5112.3935   -509.69714 
   38100    292.15389   -6120.0037   -4944.6394   -5043.0392   -329.02493 
   38150    318.56747   -6197.9981   -4916.3693   -5176.0402   -868.27621 
   38200    320.10686    -6178.787   -4890.9651   -5263.6906   -1246.3033 
   38250    306.48567   -6104.0324     -4871.01   -4715.0496    521.49336 
   38300    302.56848   -6077.1144   -4859.8512   -4578.8613    939.56185 
   38350    308.07825   -6075.2732   -4835.8436   -4578.0354     862.0477 
   38400    309.85165   -6065.9927   -4819.4286   -4587.9744    773.92646 
   38450    302.49164   -6061.2251    -4844.271   -4440.7332    1349.3322 
   38500    296.76121   -6059.8354   -4865.9354   -4319.0809    1828.5483 
   38550    298.52725   -6062.8446   -4861.8396   -4865.4669   -12.128921 
   38600    302.47467   -6024.9076   -4808.0218   -4250.5629    1864.0068 
   38650    303.80454   -5959.9185   -4737.6825   -4134.1334    2018.1215 
   38700    310.33893   -5942.0802   -4693.5557   -4140.2667    1850.0638 
   38750    314.60691   -5979.7446   -4714.0495   -4290.6016    1415.9067 
   38800    293.62426   -5973.8103   -4792.5306    -4443.099    1168.4142 
   38850    297.55104   -6026.5237   -4829.4461   -4736.1728    311.88333 
   38900    302.39686   -6019.9761   -4803.4033   -4538.0746    887.19453 
   38950    303.66173   -5958.0568   -4736.3953   -3982.6964    2520.1857 
   39000    317.72317   -5962.6526   -4684.4205   -4240.9754    1482.7725 
   39050    311.08719   -5932.6062   -4681.0713   -3940.6432    2475.8116 
   39100    311.09762   -5981.0526   -4729.4758   -4425.0608    1017.8895 
   39150    303.34193   -6007.3945   -4787.0196   -4798.8309   -39.494287 
   39200    294.78886   -5978.4266   -4792.4616    -4417.224     1254.703 
   39250    314.71047   -6030.0657    -4763.954    -4787.035   -77.177275 
   39300    292.75753   -5954.9408    -4777.148   -4332.1518    1487.9592 
   39350    290.75786   -5918.8727   -4749.1247   -4046.4574    2349.5485 
   39400    309.22162   -5957.7444   -4713.7149   -4089.6977    2086.5615 
   39450     306.1805   -5968.7492   -4736.9545   -4304.8896    1444.7196 
   39500    309.56141   -6013.3619   -4767.9654    -4824.482   -188.97791 
   39550    303.82314   -6033.7457   -4811.4349   -4867.5313   -187.57263 
   39600    299.93335   -6069.9903   -4863.3285    -5019.948   -523.69748 
   39650    300.98567   -6095.4258   -4884.5304    -4668.876    721.09566 
   39700    303.81784    -6123.157   -4900.8675   -5289.9594   -1301.0286 
   39750    305.61825   -6125.0492   -4895.5165   -4870.9482    82.150235 
   39800    299.86654   -6060.0351   -4853.6421   -4815.1122     128.8345 
   39850     310.8095   -6075.4039   -4824.9862   -4850.7925   -86.290113 
   39900    304.50178   -6070.2112   -4845.1701   -4721.7739    412.60694 
   39950    301.13334   -6134.0029   -4922.5134   -5059.7347   -458.83478 
   40000     307.4914   -6234.2971   -4997.2285   -5546.6214   -1837.0361 
   40050    306.77562    -6266.804    -5032.615   -5383.3756    -1172.858 
   40100     306.3634   -6260.5917   -5028.0611   -5404.8869   -1260.0138 
   40150    296.01581     -6193.62   -5002.7188   -4943.7887    197.04795 
   40200    304.39751    -6158.365   -4933.7434   -4983.3434   -165.85038 
   40250    307.51338   -6110.3623   -4873.2052   -4749.7665    412.74928 
   40300    309.09523   -6109.9757   -4866.4547   -5058.3209   -641.55372 
   40350    311.37791   -6141.6287   -4888.9243   -5028.3298   -466.13799 
   40400    298.92193   -6142.1955   -4939.6027   -5117.4725    -594.7532 
   40450    300.19569   -6190.0187   -4982.3014   -5085.1185   -343.79528 
   40500    301.05648   -6221.4287   -5010.2484   -5343.2432   -1113.4537 
   40550    296.43058   -6202.1684   -5009.5985    -5334.917   -1087.7858 
   40600    304.04829   -6192.0456   -4968.8289   -5093.3774   -416.46001 
   40650    306.85939   -6128.6957   -4894.1697   -4850.6311    145.58245 
   40700    306.72041     -6089.46   -4855.4931   -4630.2018    753.31927 
   40750    306.88563   -6080.3161   -4845.6845   -4883.9727   -128.02628 
   40800    306.68012    -6039.425   -4805.6202   -4818.4855   -43.018597 
   40850     286.3043   -5886.3983   -4734.5675   -3721.4507    3387.6158 
   40900    300.19974   -5823.7329   -4615.9994   -4332.9191     946.5516 
   40950    312.85933   -5745.4412   -4486.7769   -3568.7015    3069.8206 
   41000    317.27684   -5747.4816   -4471.0452   -3511.1351    3209.7058 
   41050    309.71392    -5790.535    -4544.525   -3918.6435    2092.7953 
   41100    292.16116    -5788.063   -4612.6694   -4170.8743    1477.2554 
   41150    306.21814   -5899.6509   -4667.7047   -4256.5212    1374.8977 
   41200    298.55453   -5915.1525   -4714.0378   -4311.9625    1344.4418 
   41250    307.41951   -5959.5682   -4722.7887   -4233.6458     1635.575 
   41300    304.61502   -5926.7301   -4701.2334   -3947.4069    2520.6123 
   41350    304.55953   -5919.6442   -4694.3707   -4306.0426    1298.4746 
   41400    299.20355   -5872.5386   -4668.8128   -4024.6387    2153.9614 
   41450    301.02655   -5836.9836   -4625.9237   -3765.1792    2878.1201 
   41500    315.29917   -5853.0968   -4584.6167    -3986.048    2001.4679 
   41550    318.13385   -5831.1806   -4551.2963   -4188.8048    1212.0832 
   41600    315.31855   -5845.1897   -4576.6317   -3915.2417    2211.5273 
   41650    300.87654   -5870.2814    -4659.825   -4142.0618    1731.2742 
   41700    307.30302   -5948.5075   -4712.1968   -4412.0912    1003.4799 
   41750    299.20376   -5936.8461   -4733.1194   -4211.9154    1742.7796 
   41800    311.60259   -5997.6216   -4744.0132   -4672.4507    239.28771 
   41850    305.68305   -6015.6611   -4785.8677   -4728.1532    192.98302 
   41900    304.67822   -6060.3012   -4834.5503   -4599.3522    786.44531 
   41950     299.2726   -6059.2171   -4855.2135    -4606.563    831.42688 
   42000    299.29364    -6038.164   -4834.0758   -4523.1215    1039.7555 
   42050    299.05364   -5970.1435   -4767.0208   -4481.6443    954.22935 
   42100    294.40594   -5881.6757   -4697.2512   -4043.6516     2185.478 
   42150    309.70648   -5882.2316   -4636.2515   -3959.3563     2263.373 
   42200    322.74128   -5914.9677   -4616.5473   -3929.1175    2298.5978 
   42250    298.77283   -5882.7536   -4680.7606   -3821.6223    2872.7495 
   42300    292.89539   -5905.4466   -4727.0992   -4402.7348    1084.5955 
   42350    294.48267   -5907.7658   -4723.0326   -4202.4395    1740.7365 
   42400    314.98411   -5981.4895    -4714.277   -4664.0523    167.93895 
   42450    311.18221   -5988.9175   -4737.0004   -4344.3627    1312.8847 
   42500    313.30029   -6023.3817   -4762.9433   -4526.2226    791.53667 
   42550    308.13747   -6016.1882   -4776.5203   -4675.0006    339.45744 
   42600    310.77771   -6026.8934   -4776.6036   -4615.2898    539.39407 
   42650    307.32204   -6016.5367   -4780.1494   -4855.5697   -252.18715 
   42700    308.05558   -6038.6828   -4799.3444   -4902.8292   -346.02801 
   42750    296.30161   -6043.9563   -4851.9053   -4664.7405    625.83347 
   42800    295.78128   -6082.1845   -4892.2268   -5052.0067   -534.26521 
   42850    295.14747   -6059.0454   -4871.6376   -4712.9483     530.6186 
   42900    303.60948   -6019.2833    -4797.832   -4383.8424    1384.2806 
   42950    325.19842    -6054.753   -4746.4472   -4553.9898    643.53098 
   43000     305.5024   -5978.4469   -4749.3802   -4396.2946    1180.6322 
   43050    300.23877   -5957.6563   -4749.7657   -4015.8183    2454.1416 
   43100    299.10317   -5942.7624   -4739.4404   -4294.9704    1486.1995 
   43150    309.23575   -5947.5948   -4703.5085   -4194.0043     1703.658 
   43200    305.59515   -5897.4194   -4667.9796   -4216.2745     1510.392 
   43250    301.84284   -5845.0827   -4630.7388   -4054.1568    1927.9499 
   43300    313.28615   -5864.1948   -4603.8133     -3656.78    3166.6491 
   43350    304.56886   -5866.2686   -4640.9576   -3889.0179    2514.3036 
   43400    295.07606   -5901.3794   -4714.2589   -4023.5386    2309.6009 
   43450    308.52655   -6000.3564   -4759.1233   -4580.2286    598.18037 
   43500    300.11106   -5996.1701   -4788.7933   -4533.6175    853.24585 
   43550    308.32236   -6052.9248   -4812.5131   -4779.8245    109.30285 
   43600    307.42481   -6060.9784   -4824.1776   -4934.6483   -369.38713 
   43650    312.16279   -6089.9482   -4834.0861   -5021.7688   -627.56547 
   43700    315.62616   -6110.5314   -4840.7358   -4784.3171    188.65033 
   43750    309.24646   -6092.5655   -4848.4361    -4714.718    447.12075 
   43800    307.50193   -6129.1243   -4892.0133   -5246.7814   -1186.2584 
   43850    302.44542   -6184.6823   -4967.9142   -5176.6851   -698.07909 
   43900    296.01728   -6217.7851    -5026.878   -5349.1818   -1077.7055 
   43950    296.52921   -6256.1653   -5063.1986   -5506.2677   -1481.5153 
   44000    294.69362   -6233.7274   -5048.1455   -5381.2796   -1113.9196 
   44050    298.60831   -6170.3004   -4968.9693   -4960.2871    29.031366 
   44100    306.91322   -6125.3288   -4890.5863   -5047.1173   -523.40169 
   44150     312.3962   -6113.1234   -4856.3222   -4759.8127    322.70456 
   44200     316.9056   -6185.4049    -4910.462   -4899.3546    37.140134 
   44250    293.86305   -6228.3293   -5046.0889   -5452.5783   -1359.2015 
   44300    284.33672   -6254.0814   -5110.1663   -5628.9859   -1734.8064 
   44350    293.82532   -6237.4921   -5055.4035   -5304.2864   -832.20394 
   44400    310.40948   -6183.9552   -4935.1468   -4909.9854    84.133567 
   44450    308.92249   -6109.6937   -4866.8676   -4545.2245    1075.4965 
   44500    315.33106   -6119.4668   -4850.8584   -5156.7513   -1022.8313 
   44550    295.05981   -6096.1744   -4909.1193   -5005.4481   -322.09999 
   44600    295.82446   -6190.0651   -4999.9337   -5242.6141   -811.46417 
   44650    296.13583   -6246.7688   -5055.3848   -5490.8466   -1456.0785 
   44700    297.92883   -6276.0977   -5077.5002   -5250.7447   -579.28738 
   44750    306.68665   -6288.3169   -5054.4858   -5037.1098    58.101103 
   44800    303.38893   -6218.3783   -4997.8144   -5408.6945   -1373.8832 
   44850    312.25034   -6209.7981   -4953.5837   -5222.5374   -899.31576 
   44900    300.35574   -6153.6222   -4945.2611   -4823.7518    406.29745 
   44950    314.18349   -6186.1855   -4922.1939   -5470.7227   -1834.1468 
   45000    306.80854   -6141.9677   -4907.6463   -4942.2954   -115.85808 
   45050     316.7582   -6195.7258   -4921.3759   -5158.0844   -791.49553 
   45100    303.98166   -6205.3905   -4982.4419   -5508.3336    -1758.454 
   45150    306.63384   -6258.0259   -5024.4073   -5435.9523   -1376.1065 
   45200    299.54457   -6260.0068   -5054.9091   -5798.9885   -2488.0205 
   45250    295.16153    -6232.132   -5044.6677   -5525.0752   -1606.3658 
   45300    314.78766   -6257.5172    -4991.095   -5748.7939    -2533.561 
   45350    316.36843   -6215.4454   -4942.6635    -5262.765   -1070.3415 
   45400     304.3721   -6179.5104   -4954.9911   -5122.3943   -559.75573 
   45450    311.73304   -6255.6768   -5001.5436   -5579.9661   -1934.1039 
   45500    304.92018   -6279.1842   -5052.4599   -5628.1232    -1924.878 
   45550     301.9372   -6289.3108   -5074.5873   -5477.9266   -1348.6687 
   45600    289.12258   -6217.7349   -5054.5658   -5206.0304   -506.46058 
   45650    307.05545   -6225.0252   -4989.7105   -5310.2639   -1071.8526 
   45700    306.04835   -6161.1566   -4929.8935   -4954.2285   -81.370139 
   45750    305.51961   -6099.5043   -4870.3683   -4971.0405   -336.62329 
   45800    311.88283   -6055.7805   -4801.0447     -4787.77     44.38742 
   45850    314.28129   -6015.2266   -4750.8416   -4326.5283    1418.8005 
   45900     300.7821   -5934.0079   -4723.9314    -3838.928    2959.2359 
   45950    314.32371   -5957.8242   -4693.2685   -4152.8708    1806.9584 
   46000    305.32475   -5892.5269   -4664.1749   -3753.3088    3045.7145 
   46050    311.72609   -5922.4964   -4668.3912   -4197.2246    1575.4666 
   46100    291.87057    -5870.005   -4695.7805   -3593.1581    3686.9012 
   46150    314.36843   -5963.3537   -4698.6181    -4184.015    1720.7076 
   46200    314.20433   -5973.8742   -4709.7988   -4363.6698    1157.3713 
   46250    304.51841   -5996.3759   -4771.2679   -4520.9051    837.15218 
   46300    298.18299   -6029.9538   -4830.3338   -4704.6304    420.32186 
   46350    308.54336   -6087.7158    -4846.415   -4764.1565    275.05258 
   46400    294.96851    -6077.712   -4891.0241   -4764.8865    421.77371 
   46450    307.40092    -6165.463   -4928.7584   -5308.4949   -1269.7465 
   46500    306.90719   -6151.3228   -4916.6045   -4969.3677   -176.42729 
   46550    314.90523   -6149.8524   -4882.9572   -5036.0715   -511.97723 
   46600    299.80483   -6072.5834   -4866.4386   -4887.0463   -68.907045 
   46650    303.97559   -6047.9886   -4825.0645   -4410.9835     1384.586 
   46700    308.42264   -6031.2763   -4790.4611   -4225.2795      1889.83 
   46750    308.29665   -6034.0457   -4793.7375    -4695.346    328.99696 
   46800     300.7759   -6044.5542   -4834.5027   -4347.6668    1627.8606 
   46850    297.53313   -6039.1728   -4842.1672   -4484.9853    1194.3296 
   46900    312.94021   -6103.0117    -4844.022   -4731.5722    376.00484 
   46950    313.42124   -6147.6986   -4886.7736   -5058.5374    -574.3363 
   47000    300.11601    -6151.536   -4944.1392   -4985.3206    -137.7004 
   47050    304.79392   -6208.6083   -4982.3919   -5232.2635    -835.5101 
   47100     305.1554   -6242.0186   -5014.3479   -5686.8281   -2248.6099 
   47150    302.82618   -6237.5578   -5019.2578   -5289.1428   -902.42989 
   47200    310.50149   -6254.6214   -5005.4429   -5333.6209   -1097.3475 
   47250    301.71991   -6242.5048   -5028.6555   -5426.9371   -1331.7568 
   47300    301.07648   -6259.5584   -5048.2976   -5660.2542   -2046.2339 
   47350    307.46577   -6286.7327   -5049.7672   -5810.9978   -2545.3699 
   47400    307.08622   -6280.8723   -5045.4337   -5637.1264   -1978.4761 
   47450     306.3635   -6275.6496   -5043.1186   -5637.5997      -1987.8 
   47500    300.46115   -6254.3884   -5045.6031   -5621.2745    -1924.905 
   47550    306.09332   -6258.2811   -5026.8371   -5725.5657   -2336.3783 
   47600    310.08463   -6224.6053   -4977.1039   -4999.2754   -74.136271 
   47650    314.93834   -6207.4409   -4940.4125   -5161.6454   -739.74885 
   47700    313.29816   -6198.7147   -4938.2849   -4890.7107    159.07638 
   47750    307.14368   -6193.6984   -4958.0287   -4705.0409    845.92975 
   47800    300.38066   -6178.3953   -4969.9338   -4959.8025    33.876652 
   47850    297.64525   -6149.2206    -4951.764   -4613.7052    1130.3863 
   47900    297.55185   -6104.7727   -4907.6919   -4823.5728    281.27384 
   47950     324.0844   -6183.8608   -4880.0368   -4714.4764    553.59383 
   48000    290.30895   -6081.1277   -4913.1858   -4597.6088    1055.2128 
   48050    303.08731   -6126.6906   -4907.3401   -4818.9474     295.5635 
   48100    295.57331    -6056.993    -4867.872   -4992.8843   -418.01074 
   48150    300.90479    -5996.734   -4786.1639   -4284.1078    1678.7535 
   48200    301.39381   -5921.2805    -4708.743   -4240.2726    1566.4512 
   48250    306.52916   -5825.4416   -4592.2441   -3801.3512    2644.5532 
   48300    318.97324   -5820.8332    -4537.572   -3591.9809    3161.8266 
   48350    307.56615   -5804.6017   -4567.2323   -3675.2695    2982.5067 
   48400    291.83146   -5838.9151   -4664.8479    -4134.312     1773.983 
   48450    303.04831   -5966.3804   -4747.1868    -4303.857    1482.3871 
   48500    301.75758   -5998.2435   -4784.2426   -4142.3218    2146.4267 
   48550    302.13907   -6041.1564   -4825.6207    -4293.772    1778.3727 
   48600    288.05421   -6014.0272   -4855.1563   -4454.5386     1339.568 
   48650    307.40934   -6083.3391   -4846.6006   -4806.7511    133.24711 
   48700    302.48779   -6051.3423   -4834.4037   -4391.4429    1481.1532 
   48750    296.82341   -5984.5903   -4790.4401   -4359.1397    1442.1634 
   48800    304.30406   -5907.5831   -4683.3375   -4075.5565    2032.2716 
   48850    320.09833   -5879.7527   -4591.9652   -3679.3735    3051.4846 
   48900    319.17604     -5864.45   -4580.3729   -3673.1597    3033.5002 
   48950    304.57113   -5856.3807   -4631.0606   -4068.7204    1880.3287 
   49000    306.30558   -5933.1532   -4700.8552   -4345.2202    1189.1568 
   49050    300.82052   -5931.2513   -4721.0203   -4479.3392    808.12267 
   49100    298.46413   -5885.2978   -4684.5468   -3853.7763    2777.8943 
   49150    303.96576    -5824.178   -4601.2934   -3889.3896     2380.433 
   49200    323.33821   -5836.5121   -4535.6902   -3912.7649    2082.9104 
   49250    320.44806   -5875.7872   -4586.5926   -4067.6103    1735.3503 
   49300     299.8734   -5900.7469   -4694.3262   -4373.9847    1071.1442 
   49350    298.54929   -5973.1085   -4772.0149   -4248.9717    1748.9289 
   49400    299.02967   -5984.7233   -4781.6971   -4527.6153    849.58762 
   49450    309.49956   -5990.8139   -4745.6662    -4135.332    2040.8092 
   49500    311.53141   -5923.6633   -4670.3412   -3787.7895    2951.0383 
   49550    307.53903    -5861.261   -4624.0008   -3888.2413    2460.2008 
   49600    317.40449   -5919.3439   -4642.3938     -4475.96    556.51436 
   49650    290.10554   -5866.7982   -4699.6746   -4239.4035    1539.0346 
   49700    296.64588   -5941.5921    -4748.156   -4356.4634     1309.725 
   49750    306.01884   -5988.8756   -4757.7312   -4499.8186    862.39705 
   49800    302.17883   -5964.0483   -4748.3527   -4334.6031     1383.478 
   49850     294.3964   -5920.4423   -4736.0562   -4201.9092    1786.0576 
   49900    305.70148   -5941.3498   -4711.4822   -4222.0092    1636.6787 
   49950    307.36225   -5924.5303   -4687.9812   -4252.4482    1456.3165 
  STMD DIG: istep= 50000  TSC1= 50000 Tlow= 1.134262
   50000    301.84903   -5884.3001   -4669.9312   -4090.1667    1938.5915 
   50050    300.94281   -5826.3085   -4615.5855   -3563.6627    3517.3739 
   50100    306.24735   -5782.9307    -4550.867   -3919.1027    2112.4662 
   50150    310.31276   -5771.6911   -4523.2719   -3891.7459    2111.6692 
   50200     312.0235   -5813.7547    -4558.453     -3949.45    2036.3577 
   50250    300.09387    -5823.904   -4616.5963   -4077.3056     1803.257 
   50300    292.59251   -5845.0667   -4667.9377   -4204.3637    1550.0787 
   50350    300.02516   -5869.2162    -4662.185   -4075.8176    1960.6699 
   50400    301.33747    -5852.566   -4640.2552   -3994.3062    2159.8965 
   50450     303.3074   -5803.7301   -4583.4941   -4080.6597    1681.3559 
   50500    322.62636   -5834.8885   -4536.9303   -3685.6484    2846.4796 
   50550    309.65282   -5852.3237   -4606.5594   -3901.7888    2356.5813 
   50600    299.92645   -5943.3133   -4736.6792   -4201.1986    1790.5168 
   50650    291.28763   -5981.8985   -4810.0193    -4695.146    384.10807 
[...]
  988350    308.59261   -6249.4314   -5007.9325   -5600.5936   -1981.7147 
  988400    300.00062   -6283.2364   -5076.3039   -5881.5439   -2692.5264 
  988450    305.17391   -6359.7873   -5132.0422   -6054.7987   -3085.4731 
  988500    295.57935   -6351.5951   -5162.4498   -5912.4883   -2507.9462 
  988550    309.45827   -6413.4991   -5168.5175   -6210.4717   -3484.0412 
  988600    290.53221   -6384.1372   -5215.2971   -6163.4969   -3170.5495 
  988650    301.23355   -6413.5212   -5201.6285   -6174.4034   -3252.7227 
  988700    302.62583   -6391.0728   -5173.5789   -5849.1879   -2259.0722 
  988750    305.91485    -6365.399    -5134.673   -5976.9503   -2816.3705 
  988800    307.47765   -6348.5989   -5111.5856    -5580.868   -1569.1662 
  988850    313.39962   -6384.5626   -5123.7246   -5874.3721   -2509.9826 
  988900    291.91488   -6350.3777    -5175.975   -5742.7681   -1895.2183 
  988950    293.81547   -6336.0127   -5153.9637   -5880.9094   -2430.7294 
  989000    302.67305   -6282.2781   -5064.5942   -5575.8555   -1709.5334 
  989050    313.85537   -6243.7159   -4981.0444   -5180.2695   -666.16024 
  989100    315.59449   -6262.5804   -4992.9123   -5387.6463   -1319.8946 
  989150    313.20465   -6317.2927   -5057.2391   -5623.9801   -1895.0441 
  989200    300.13605   -6334.3067   -5126.8294   -5872.5791   -2493.6054 
  989250    291.34867    -6339.006   -5166.8811   -5929.0192   -2548.4043 
  989300    312.37866    -6418.526   -5161.7954    -6237.362   -3596.4328 
  989350    309.18819   -6417.3077   -5173.4127   -6237.9198   -3559.4525 
  989400    311.75618   -6442.8614   -5188.6352   -6403.2556    -4061.395 
  989450     307.2312    -6430.713   -5194.6911    -6212.542   -3403.4455 
  989500    299.91124   -6418.8057   -5212.2328   -6047.5927     -2793.24 
  989550    305.27833   -6444.9618   -5216.7966   -6152.8644    -3129.983 
  989600     307.5107   -6433.0546   -5195.9083   -6378.6564   -3954.8219 
  989650     303.4344   -6398.0352   -5177.2883    -5644.741    -1563.048 
  989700    299.57828    -6353.575   -5148.3417   -6133.5106   -3294.1652 
  989750    313.79367   -6345.3428   -5082.9195   -5605.5276   -1747.4744 
  989800    307.48652   -6297.3208   -5060.2718   -5278.3528   -729.20991 
  989850    311.68316   -6343.1572   -5089.2247   -5693.6816   -2021.1569 
  989900    314.50561   -6394.7915    -5129.504   -6048.1925   -3071.8706 
  989950     290.7053   -6376.0541   -5206.5176   -6154.7315   -3170.5964 
  990000    302.64081   -6440.8657   -5223.3115   -6160.8033   -3134.7445 
  990050     306.5197   -6447.7592   -5214.5998   -6271.7721    -3534.927 
  990100     299.4455   -6401.6553   -5196.9561   -6182.0871   -3294.0381 
  990150    310.22587   -6381.6311   -5133.5614    -5904.793   -2578.8106 
  990200    297.40684   -6310.9495   -5114.4521   -5615.7561   -1676.2387 
  990250    307.12568   -6335.4529   -5099.8556   -5843.0689   -2485.1246 
  990300    312.85364   -6331.6736   -5073.0322   -5683.5575   -2041.4482 
  990350    321.03786   -6356.5251   -5064.9577   -5942.8612   -2935.4957 
  990400    287.01222   -6275.8239   -5121.1451   -5639.5882   -1733.5477 
  990450    292.38146   -6277.8263   -5101.5464   -5669.5023   -1899.1063 
  990500    309.13074   -6290.0554   -5046.3915   -5429.8793   -1282.2901 
  990550    309.29693   -6297.1252   -5052.7927   -5242.9294   -635.77058 
  990600    308.02749   -6336.4857   -5097.2603   -5700.5947   -2017.4033 
  990650    285.43578   -6302.9763   -5154.6396   -5339.4406   -617.92952 
  990700    306.50681   -6349.1948   -5116.0872   -6067.2989   -3180.6204 
  990750     314.4536   -6340.4615   -5075.3833   -5708.3936   -2116.6325 
  990800     300.9446   -6294.7706   -5084.0404   -5234.3388   -502.56151 
  990850    298.89708   -6264.2754   -5061.7826   -5746.1253   -2288.2756 
  990900    313.07387   -6258.5605    -4999.033   -5544.4291   -1823.6719 
  990950    309.42837   -6210.4781   -4965.6168   -5287.7575     -1077.16 
  991000    303.35516    -6152.165   -4931.7369    -5148.768   -725.69922 
  991050    307.47887   -6090.4004   -4853.3821   -4943.1106    -300.0301 
  991100    320.57634   -6062.8392   -4773.1285   -4652.1449    404.53972 
  991150     315.0626   -6051.1512   -4783.6229   -4455.0322    1098.7272 
  991200     308.6977   -6131.3366    -4889.415   -4803.5632    287.06736 
  991250    294.43692   -6158.5139   -4973.9648   -5185.7714   -708.22982 
  991300    299.43508   -6183.0456   -4978.3883   -5457.1427   -1600.8381 
  991350    295.40144   -6123.5346   -4935.1051    -4781.319    514.22321 
  991400    302.57532   -6107.7433   -4890.4525   -4604.5439    956.00885 
  991450    297.44012   -6027.1349   -4830.5035   -4913.8692   -278.75449 
  991500    302.73675   -5999.4802     -4781.54   -4684.0674    325.92474 
  991550     309.8562   -6002.8549   -4756.2725   -4319.5988    1460.1307 
  991600    302.70433   -6045.5969   -4827.7872   -4632.9022    651.64786 
  991650    293.53057   -6105.5372   -4924.6344   -4958.9804   -114.84456 
  991700    300.60378   -6148.8547   -4939.4956   -4998.4464   -197.11705 
  991750    303.51617   -6111.7344   -4890.6585   -4741.4395      498.952 
  991800    319.33372   -6115.8427   -4831.1312   -4544.0604    959.89493 
  991850    311.55111   -6065.8098   -4812.4086   -4730.0605    275.35203 
  991900     305.9207   -6052.6759   -4821.9264   -4831.5914   -32.317585 
  991950    303.11276   -6052.8608   -4833.4079   -4628.0908     686.5305 
  992000    304.65275   -6070.1089   -4844.4604   -4635.8618    697.50299 
  992050    305.66609   -6104.6838   -4874.9585   -4902.6755   -92.679034 
  992100    302.11726    -6116.761   -4901.3131   -5067.7533   -556.53542 
  992150    302.74505   -6100.2269   -4882.2533   -4929.0575   -156.50189 
  992200    294.53741   -6014.8073   -4829.8538   -4430.0035    1337.0023 
  992250     307.1658   -6007.0552   -4771.2965   -4638.1097    445.34427 
  992300     317.0746   -5982.1079   -4706.4851   -4312.4466    1317.5686 
  992350    306.16893   -5926.1029   -4694.3547   -4275.4638    1400.6694 
  992400    307.93707   -5942.4076   -4703.5459   -4147.7275    1858.5215 
  992450    294.00923   -5873.4862   -4690.6577   -4063.4345    2097.2817 
  992500    302.38512   -5839.6629   -4623.1373   -4003.2871    2072.6283 
  992550    308.03355   -5816.7905   -4577.5407   -3476.7658    3680.7235 
  992600    315.47739   -5850.4811    -4581.284   -3879.5788    2346.3314 
  992650    311.68124   -5918.4958    -4664.571   -4134.3334    1772.9853 
  992700    299.91199   -5920.8847   -4714.3088   -4341.9271    1245.1538 
  992750    302.80103   -5925.0805   -4706.8817   -4385.2033    1075.6145 
  992800     309.0329   -5926.8623   -4683.5921   -4472.0036    707.50033 
  992850    311.77184   -5914.5926   -4660.3034   -4124.3702    1792.0301 
  992900    301.85243   -5881.2117   -4666.8292    -3999.713    2230.6742 
  992950    302.13566   -5885.9805   -4670.4585   -4346.0343    1084.7957 
  993000    314.84528     -5930.14   -4663.4859   -4286.2714    1261.3136 
  993050    311.67926   -5958.5444   -4704.6276   -4140.6436    1885.8251 
  993100    296.05932   -5971.1211   -4780.0449   -4489.5247    971.42856 
  993150     300.5324   -6046.1014   -4837.0295   -4836.3038    2.4266533 
  993200    291.68804   -5998.3771   -4824.8869   -4637.6627    626.03223 
  993250    316.04254   -6041.5291   -4770.0584   -4321.2635     1500.661 
  993300    312.36171   -6025.7807   -4769.1183   -4659.8684    365.30521 
  993350     301.2294   -6015.0718   -4803.1958   -4609.2796    648.40888 
  993400    304.80684   -6057.9818   -4831.7135   -4641.1211    637.29453 
  993450    304.78984   -6097.3475   -4871.1475   -4824.6018    155.63768 
  993500    304.57389   -6105.5209   -4880.1896   -4937.1309   -190.39782 
  993550    313.40822   -6123.0744   -4862.2018   -4949.6322   -292.34612 
  993600    298.63371   -6068.5676   -4867.1343   -4654.3432    711.52147 
  993650    306.82774   -6099.4727   -4865.0741    -4796.575    229.04415 
  993700    316.84773   -6153.7024   -4878.9923   -4902.6124   -78.979908 
  993750    298.26425   -6139.5758   -4939.6289   -5048.2335   -363.14727 
  993800    315.43916   -6264.5511   -4995.5078   -5636.6759     -2143.91 
  993850    288.40588   -6207.1402   -5046.8545   -5544.6503   -1664.5082 
  993900    301.34022   -6266.0121   -5053.6903   -5401.2264   -1162.0761 
  993950    302.24072    -6269.807   -5053.8623   -5628.6848   -1922.0664 
  994000     306.8583   -6273.6491   -5039.1275   -5670.2264   -2110.2413 
  994050    299.98227   -6233.3836   -5026.5249   -5521.1457   -1653.8915 
  994100    310.91718   -6233.1303   -4982.2795    -5225.115    -811.9828 
  994150    308.89203   -6209.4682   -4966.7647   -5094.7511   -427.95536 
  994200    305.19821   -6198.7445   -4970.9016   -5149.0998   -595.85122 
  994250    305.07798   -6187.0507   -4959.6915   -5322.6305   -1213.5798 
  994300    303.70567   -6139.8791   -4918.0409   -4894.2172    79.660633 
  994350    307.84539   -6109.0419   -4870.5492   -5057.5855   -625.40392 
  994400    305.03907   -6059.1906   -4831.9879   -4664.7537    559.19057 
  994450    307.69597   -6034.2109   -4796.3193   -4810.3787   -47.011144 
  994500    304.89896   -6023.6713   -4797.0323   -4405.9654    1307.6327 
  994550    299.54508     -6003.12   -4798.0202   -4562.6174    787.12976 
  994600    307.51896   -5982.1608   -4744.9812   -4162.0977    1949.0207 
  994650    316.13188   -5966.6608   -4694.8306   -4303.5112    1308.4769 
  994700    308.47581   -5939.5954   -4698.5664   -4407.5194    973.19021 
  994750    297.46547   -5925.3871   -4728.6538    -4291.568    1461.5085 
  994800     299.5976   -5944.7775   -4739.4664   -4339.6447    1336.9067 
  994850    296.78049   -5931.8999   -4737.9223    -4250.032    1631.3864 
  994900    290.99654   -5868.0752   -4697.3671   -3827.2135    2909.5817 
  994950    317.60026   -5898.1321   -4620.3946   -3718.9918    3014.0715 
  995000    308.79137   -5826.3093   -4584.0108   -3424.4729    3877.2126 
  995050    299.43586   -5814.5353   -4609.8749   -3872.1673    2466.7147 
  995100    304.56984   -5826.9705   -4601.6556    -3852.447    2505.1714 
  995150    308.05363   -5816.2389   -4576.9084   -3931.9078    2156.7251 
  995200    312.97815   -5805.1327   -4545.9903   -3564.1287    3283.1061 
  995250    307.18073   -5802.8804   -4567.0616   -3666.6903    3010.6227 
  995300    304.96653   -5850.8008   -4623.8899   -4093.8476    1772.3325 
  995350    304.48005   -5901.4061   -4676.4524   -4092.1627    1953.7228 
  995400    292.18783   -5896.3489   -4720.8481   -4404.9749    1056.2032 
  995450    293.87193   -5908.0627   -4725.7866     -3965.94    2540.7419 
  995500     305.2572   -5890.9602   -4662.8799   -3947.0871    2393.4372 
  995550    326.12998   -5915.2084   -4603.1549   -3722.1441    2945.8857 
  995600    310.09358   -5887.2058   -4639.6683   -3777.4923    2882.9069 
  995650     294.3992   -5951.4368   -4767.0394   -4283.3446    1617.3577 
  995700    290.44509   -6013.5165   -4845.0269   -4525.1371    1069.6336 
  995750    299.49553   -6042.7457   -4837.8452   -4804.6314     111.0591 
  995800    306.73687   -6011.7727   -4777.7397   -4388.4917    1301.5503 
  995850    312.39837   -6014.8565   -4758.0466   -4473.2853    952.17255 
  995900    300.53709   -5978.1646   -4769.0739   -4578.2105    638.20077 
  995950     301.0201   -5958.4554   -4747.4215   -4276.5307    1574.5444 
  996000    313.75716   -5982.7254    -4720.449   -4406.9979    1048.1044 
  996050    310.55199   -5989.5149   -4740.1332   -4442.1853    996.26541 
  996100    297.33799   -5952.9475   -4756.7271   -4161.3244    1990.8816 
  996150    307.32008   -5943.9996   -4707.6202   -4451.0199    858.00883 
  996200    311.17325   -5893.8429   -4641.9618   -3851.5259    2643.0254 
  996250    299.27634   -5828.9218   -4624.9032   -4006.2934    2068.4807 
  996300    307.03458   -5861.3255   -4626.0947   -3713.2241    3052.4171 
  996350    313.00057   -5879.3567   -4620.1242    -3978.247     2146.281 
  996400    312.47921   -5883.2373   -4626.1022   -3969.1109    2196.8188 
  996450    302.52106   -5854.6491   -4637.5766   -3855.5549    2614.8904 
  996500     305.0135    -5847.596   -4620.4962   -4052.2082    1900.2167 
  996550    310.13713   -5848.0976   -4600.3849    -3632.378    3236.7797 
  996600     306.6242   -5814.2801   -4580.7003   -3700.5041    2943.1618 
  996650    306.28074   -5821.3008   -4589.1028   -3942.2455    2162.9333 
  996700    295.10441    -5769.261   -4582.0265   -4055.4961    1760.5897 
  996750    309.48673   -5826.3854   -4581.2894   -4098.3872    1614.7074 
  996800    304.97229   -5816.6668   -4589.7328    -3885.622    2354.3752 
  996850    314.87885   -5906.8518   -4640.0627   -4179.0322    1541.5736 
  996900    296.87697   -5901.7412   -4707.3755   -4370.6012    1126.0911 
  996950    306.24747   -5956.3086   -4724.2444   -4279.3114    1487.7476 
  997000    312.24444    -5946.089   -4689.8984   -4100.2274    1971.7162 
  997050    310.33745   -5893.8841   -4645.3655   -3978.4817    2229.8974 
  997100    304.91598   -5865.2398   -4638.5323    -3695.644     3152.789 
  997150    313.59134   -5921.2167   -4659.6074   -4289.3695    1237.9855 
  997200    307.00642   -5959.8047   -4724.6872   -4388.0859    1125.5127 
  997250    292.97372   -5968.8523   -4790.1897   -4581.4211    698.07156 
  997300    300.11963   -5994.4326   -4787.0213    -4638.107    497.93322 
  997350    298.38038   -5921.7498   -4721.3357   -3918.7274    2683.7269 
  997400    315.85229   -5898.4364    -4627.731   -4150.7072    1595.0515 
  997450    301.52186   -5787.9821   -4574.9295   -3715.8604    2872.5178 
  997500    301.75148   -5803.8879   -4589.9116   -3845.7608    2488.2592 
  997550    303.52224   -5822.5165   -4601.4162   -3902.4935    2337.0274 
  997600    297.97292   -5810.2282   -4611.4534   -4097.6793    1717.9356 
  997650    315.87907    -5913.295   -4642.4819   -4174.5453     1564.666 
  997700    308.12297   -5928.6141   -4689.0045   -4312.4338    1259.1608 
  997750    304.46645   -5951.1237   -4726.2247   -4283.7185    1479.6329 
  997800    292.44397   -5864.6037   -4688.0723   -4174.3885    1717.6337 
  997850    310.18299   -5834.8424   -4586.9452   -3694.1411    2985.3199 
  997900    316.37282   -5821.6627   -4548.8632   -3730.6206     2736.004 
  997950    298.03483    -5795.749   -4596.7251   -3759.8734    2798.2286 
  998000    305.21007   -5913.5604   -4685.6698   -4126.0421    1871.2589 
  998050     291.5559   -5893.3466    -4720.388   -4164.3785    1859.1604 
  998100    298.62184   -5862.9084   -4661.5229    -4250.378    1374.7686 
  998150    313.75673   -5815.6971   -4553.4224   -3853.0736    2341.7959 
  998200    320.77253    -5779.673   -4489.1731   -3919.7383    1904.0511 
  998250    312.22483   -5764.5549   -4508.4432   -3683.5333    2758.2979 
  998300    299.38638   -5804.6073    -4600.146   -3868.3524    2446.9396 
  998350    306.95509   -5919.6936   -4684.7826   -4224.1283     1540.316 
  998400    300.33057   -5920.8792   -4712.6193   -4462.9955    834.68139 
  998450     297.2917   -5908.6357   -4712.6015   -4253.7753    1534.2031 
  998500     310.6074   -5965.6491   -4716.0444   -4360.8756    1187.5983 
  998550    302.59412   -5955.4216   -4738.0553   -4382.8559    1187.7003 
  998600    293.27328   -5954.8379   -4774.9702   -4648.5449     422.7353 
  998650    308.45398   -5988.0291   -4747.0879   -4774.0112   -90.024976 
  998700    317.63791   -6002.2202   -4724.3311   -4461.7173    878.11661 
  998750    324.53752   -6094.1871   -4788.5402   -4814.8432   -87.950893 
  998800    290.31062   -6097.6051   -4929.6564   -5215.0107   -954.15532 
  998850    288.44952   -6145.4729   -4985.0116   -5216.3878   -773.66565 
  998900    302.13306   -6145.2732   -4929.7617   -5153.9199   -749.53053 
  998950    311.65425   -6084.9779   -4831.1617   -4695.3887    453.99182 
  999000    306.87193   -6011.5646   -4776.9881   -4417.1187    1203.3159 
  999050    298.62842   -5953.7562   -4752.3442   -4222.1319     1772.901 
  999100    310.40678    -5986.432   -4737.6345   -4685.7073    173.63195 
  999150    308.75699   -5967.0169   -4724.8567   -4466.6894    863.24858 
  999200    304.07388   -5953.5841   -4730.2645   -4275.4592    1520.7581 
  999250    312.63447   -5956.4058   -4698.6461   -4211.8318    1627.7887 
  999300    311.84078   -5889.0355   -4634.4688   -3988.3351    2160.5138 
  999350    303.85422   -5811.8645   -4589.4286   -3876.8665    2382.6346 
  999400    307.51014    -5825.943    -4588.799   -3661.9437    3099.1788 
  999450    301.96539   -5848.1056   -4633.2686   -3858.4254    2590.8871 
  999500    293.06294   -5886.7134   -4707.6919   -4392.0298    1055.4972 
  999550    297.54729   -5950.2457   -4753.1832   -4440.8969    1044.2093 
  999600    300.17817   -5995.7796   -4788.1328   -4603.9512    615.85832 
  999650    309.30458   -6065.1516   -4820.7883   -4572.3967    830.56123 
  999700    294.47615   -6026.9422   -4842.2352    -4441.169    1341.0675 
  999750    309.05359   -6073.9645    -4830.611   -4956.7594   -421.80979 
  999800    298.06044    -6013.844   -4814.7171   -4544.5163    903.48556 
  999850    309.67662   -6031.3823   -4785.5223    -4660.041    419.57892 
  999900    300.28218   -5983.8814   -4775.8162   -4392.8054     1280.695 
  999950    301.70034   -5952.6132   -4738.8425   -4383.1584    1189.3211 
 1000000    322.07159   -5993.6776   -4697.9515   -4437.2587    871.69319 
Loop time of 9795 on 4 procs for 1000000 steps with 2004 atoms

Performance: 17.642 ns/day, 1.360 hours/ns, 102.093 timesteps/s
93.8% CPU use with 4 MPI tasks x 1 OpenMP threads

MPI task timing breakdown:
Section |  min time  |  avg time  |  max time  |%varavg| %total
---------------------------------------------------------------
Pair    | 7259.2     | 7319       | 7373.9     |  49.1 | 74.72
Bond    | 11.361     | 20.582     | 32.23      | 165.1 |  0.21
Kspace  | 1143       | 1197.1     | 1266.3     | 129.1 | 12.22
Neigh   | 695.29     | 695.35     | 695.39     |   0.1 |  7.10
Comm    | 201        | 201.85     | 202.82     |   4.6 |  2.06
Output  | 0.5242     | 0.56481    | 0.67617    |   8.6 |  0.01
Modify  | 263.98     | 264.48     | 264.91     |   2.6 |  2.70
Other   |            | 96.1       |            |       |  0.98

Nlocal:    501 ave 519 max 491 min
Histogram: 1 1 1 0 0 0 0 0 0 1
Nghost:    6644 ave 6696 max 6612 min
Histogram: 1 1 0 1 0 0 0 0 0 1
Neighs:    176803 ave 184791 max 171510 min
Histogram: 2 0 0 0 0 1 0 0 0 1

Total # of neighbors = 707213
Ave neighs/atom = 352.901
Ave special neighs/atom = 2.34032
Neighbor list builds = 91181
Dangerous builds = 0

write_restart     restart.peptide.${rep}.*
write_restart     restart.peptide.1.*
PPPM initialization ...
  using 12-bit tables for long-range coulomb (../kspace.cpp:321)
  G vector (1/distance) = 0.268725
  grid = 15 15 15
  stencil order = 5
  estimated absolute RMS force accuracy = 0.0228209
  estimated relative force accuracy = 6.87243e-05
  using double precision FFTs
  3d grid and FFT values/proc = 4312 960
RESTMD: #replicas= 2  walker= 1
STMD: STAGE= 1, #bins= 251  binsize= 12.000000
  Emin= -8500.000000 Emax= -5500.000000 f-value= 1.024290 df= 0.001000
  f-tolerances: STG3= 1.000480 STG4= 1.000048
write_data        data.peptide.${rep}
write_data        data.peptide.1
PPPM initialization ...
  using 12-bit tables for long-range coulomb (../kspace.cpp:321)
  G vector (1/distance) = 0.268725
  grid = 15 15 15
  stencil order = 5
  estimated absolute RMS force accuracy = 0.0228209
  estimated relative force accuracy = 6.87243e-05
  using double precision FFTs
  3d grid and FFT values/proc = 4312 960
RESTMD: #replicas= 2  walker= 1
STMD: STAGE= 1, #bins= 251  binsize= 12.000000
  Emin= -8500.000000 Emax= -5500.000000 f-value= 1.024290 df= 0.001000
  f-tolerances: STG3= 1.000480 STG4= 1.000048

quit
