LAMMPS (22 Aug 2018)
Processor partition = 0
OMP_NUM_THREADS environment is not set. Defaulting to 1 thread. (../comm.cpp:87)
  using 1 OpenMP thread(s) per MPI task
# Must be run with at LEAST 2 procs in 'partition mode'

units           real
atom_style      full

pair_style        lj/charmm/coul/long 8.0 10.0 10.0
bond_style        harmonic
angle_style       charmm
dihedral_style    charmm
improper_style    harmonic
kspace_style      pppm 0.0001

# Define variables
variable tlo world 220 270
variable thi world 300 350
variable rep world 0 1
variable temp equal 305.0
variable steps equal 1000000

read_data         data.peptide
  orthogonal box = (36.8402 41.0137 29.7681) to (64.2116 68.3851 57.1395)
  1 by 1 by 1 MPI processor grid
  reading atoms ...
  2004 atoms
  reading velocities ...
  2004 velocities
  scanning bonds ...
  3 = max bonds/atom
  scanning angles ...
  6 = max angles/atom
  scanning dihedrals ...
  14 = max dihedrals/atom
  scanning impropers ...
  1 = max impropers/atom
  reading bonds ...
  1365 bonds
  reading angles ...
  786 angles
  reading dihedrals ...
  207 dihedrals
  reading impropers ...
  12 impropers
  4 = max # of 1-2 neighbors
  7 = max # of 1-3 neighbors
  14 = max # of 1-4 neighbors
  18 = max # of special neighbors

neighbor          2.0 bin
neigh_modify      delay 5

timestep          2.0

thermo_style      custom step temp pe etotal enthalpy press
thermo            50

fix               fxnvt all nvt temp ${temp} ${temp} 100.0 tchain 1
fix               fxnvt all nvt temp 305 ${temp} 100.0 tchain 1
fix               fxnvt all nvt temp 305 305 100.0 tchain 1
fix               fxSTMD all stmd ${steps} constant_f 0.001 0.00002 ${tlo} ${thi} -8500 -5500 12 50000 500000 fxnvt no
fix               fxSTMD all stmd 1000000 constant_f 0.001 0.00002 ${tlo} ${thi} -8500 -5500 12 50000 500000 fxnvt no
fix               fxSTMD all stmd 1000000 constant_f 0.001 0.00002 220 ${thi} -8500 -5500 12 50000 500000 fxnvt no
fix               fxSTMD all stmd 1000000 constant_f 0.001 0.00002 220 300 -8500 -5500 12 50000 500000 fxnvt no
fix               2 all shake 0.0001 10 0 b 4 6 8 10 12 14 18 a 31
  19 = # of size 2 clusters
  6 = # of size 3 clusters
  3 = # of size 4 clusters
  640 = # of frozen angles

group             peptide type <= 12
84 atoms in group peptide
#dump              mydump peptide dcd 1000 ${rep}.dcd
#dump_modify       mydump unwrap yes

# Run in partition mode, but with exchanges OFF until STG2
temper/stmd       ${steps} 1000 fxSTMD fxnvt 0 12345 off
temper/stmd       1000000 1000 fxSTMD fxnvt 0 12345 off
PPPM initialization ...
  using 12-bit tables for long-range coulomb (../kspace.cpp:321)
  G vector (1/distance) = 0.268725
  grid = 15 15 15
  stencil order = 5
  estimated absolute RMS force accuracy = 0.0228209
  estimated relative force accuracy = 6.87243e-05
  using double precision FFTs
  3d grid and FFT values/proc = 10648 3375
RESTMD: #replicas=2  walker=0
STMD: STAGE=1, #bins=251  binsize=12.000000
  Emin=-8500.000000 Emax=-5500.000000 f-value=1.024290 df=0.001000
  f-tolerances: STG3=1.000480 STG4=1.000048
Neighbor list info ...
  update every 1 steps, delay 5 steps, check yes
  max neighbors/atom: 2000, page size: 100000
  master list distance cutoff = 12
  ghost atom cutoff = 12
  binsize = 6, bins = 5 5 5
  1 neighbor lists, perpetual/occasional/extra = 1 0 0
  (1) pair lj/charmm/coul/long, perpetual
      attributes: half, newton on
      pair build: half/bin/newton
      stencil: half/bin/3d/newton
      bin: standard
  STMD DIG: istep=0  TSC1=50000 Tlow=0.983286
Per MPI rank memory allocation (min/avg/max) = 18.72 | 18.72 | 18.72 Mbytes
Step Temp PotEng TotEng Enthalpy Press 
       0    303.06656   -6135.9847   -4916.7176   -4977.5114   -203.27973 
      50    296.24282   -6119.2434    -4927.429   -5485.9724   -1867.6334 
     100    305.70481   -6187.7002   -4957.8192   -5219.8777   -876.25984 
     150    295.16211   -6193.8157    -5006.349    -5522.498   -1725.8765 
     200    296.28988   -6165.4365   -4973.4327   -5304.5347   -1107.1245 
     250    324.62371   -6208.8739   -4902.8802   -4982.2925   -265.53541 
     300    305.35331   -6151.3179    -4922.851   -4948.4513   -85.601235 
     350    311.27954   -6216.4865   -4964.1778   -5476.2176   -1712.1365 
     400    297.54504   -6214.0132   -5016.9598   -5428.7843    -1377.041 
     450    299.60103   -6268.9653   -5063.6404   -5457.8874   -1318.2661 
     500    296.63741   -6250.1035   -5056.7015   -5515.3169   -1533.4985 
     550    301.57742   -6217.8485   -5004.5724   -5283.9746   -934.25282 
     600     313.5492   -6193.1785   -4931.7388   -5303.8971   -1244.4069 
     650    313.90557   -6170.4364   -4907.5629   -5265.3016    -1196.191 
     700    292.89641   -6127.7667   -4949.4152      -4925.5    79.966539 
     750    302.87974    -6180.709   -4962.1935   -5549.1886   -1962.7687 
     800    308.98318   -6209.2801   -4966.2099   -5358.4908   -1311.6921 
     850    293.88076   -6207.8697    -5025.558   -5279.9632   -850.66899 
     900    287.92953   -6213.9584   -5055.5892   -5440.0198   -1285.4424 
     950    306.20255   -6241.1058   -5009.2223   -5301.2292   -976.40002 
    1000    306.32401    -6185.021   -4952.6489   -5241.9188   -967.24822 
    1050     313.2473    -6193.925   -4933.6998   -5390.5434   -1527.5739 
    1100     298.3847    -6160.274   -4959.8425   -5044.9673   -284.63648 
    1150    306.02852   -6219.0151   -4987.8318   -5254.9045   -893.02594 
    1200    289.31994   -6196.8381    -5032.875   -5411.7752   -1266.9499 
    1250     299.9953   -6195.9077   -4988.9966   -5454.6035   -1556.8759 
    1300    324.96044   -6225.7657   -4918.4174    -5306.942   -1299.1319 
    1350    315.32372   -6189.4576   -4920.8788   -5385.3666   -1553.1343 
    1400    295.02627   -6153.5344   -4966.6142   -5471.1179   -1686.9377 
    1450     296.0332   -6180.9106   -4989.9394   -5242.0366   -842.95147 
    1500    304.48826   -6243.2664   -5018.2796   -5592.3537   -1919.5639 
    1550    294.73237    -6258.984   -5073.2462   -5924.6007   -2846.7223 
    1600    298.06994   -6293.9439   -5094.7787   -5552.6911   -1531.1477 
    1650    309.58266   -6303.1973   -5057.7153   -5627.2081   -1904.2453 
    1700    297.27364   -6224.4044   -5028.4428   -5515.4956    -1628.586 
    1750    307.39033    -6241.902     -5005.24    -5379.256   -1250.6186 
    1800    299.65143   -6221.6863   -5016.1586   -5422.2495   -1357.8693 
    1850    305.59749    -6264.252   -5034.8028   -5590.7813   -1859.0571 
    1900    296.83013   -6243.3878   -5049.2105   -5527.4209   -1599.0191 
    1950    299.62908   -6237.8945   -5032.4567   -5376.2008   -1149.3967 
    2000    309.87307     -6239.05   -4992.3997   -5512.9656   -1740.6459 
    2050    311.01776   -6190.9599   -4939.7044   -5357.4829   -1396.9496 
    2100    319.32928   -6192.0711   -4907.3774   -5236.3482   -1099.9983 
    2150    310.37232   -6217.4969    -4968.838   -5377.3996   -1366.1304 
    2200    302.97419   -6295.6122   -5076.7168   -5821.0952   -2489.0203 
    2250     293.7378   -6344.6453   -5162.9087   -5374.2635   -706.71894 
    2300    287.46873   -6314.8843   -5158.3689   -5809.0676    -2175.778 
    2350    308.24298   -6287.1591   -5047.0668   -5553.9143   -1694.7746 
    2400    310.63303   -6197.9889   -4948.2812   -5077.2423   -431.21475 
    2450    314.16884    -6179.538   -4915.6053   -5053.8738   -462.33615 
    2500    305.61644   -6179.8586   -4950.3331   -5148.4081   -662.31463 
    2550    306.32408   -6224.0528   -4991.6804   -5749.0858   -2532.5793 
    2600    308.25373   -6260.7146    -5020.579   -5686.8022   -2227.6882 
    2650    301.93791   -6270.5331   -5055.8067   -5682.3079   -2094.8674 
    2700    308.03311   -6307.5468   -5068.2988   -5813.6481   -2492.2664 
    2750    305.58793   -6309.9559   -5080.5451   -5566.6271     -1625.34 
    2800    302.79186   -6297.7415   -5079.5795    -5829.306    -2506.903 
    2850    306.64336   -6296.9504   -5063.2935   -5722.6379   -2204.6874 
    2900    302.24929   -6264.1469   -5048.1678   -5625.0386   -1928.9156 
    2950    303.44341   -6235.9564   -5015.1732   -5210.4778   -653.05091 
    3000    298.35976   -6187.1486   -4986.8175   -5383.3789    -1326.005 
    3050     303.1904   -6214.7713    -4995.006   -5689.7474   -2323.0463 
    3100    301.74143    -6200.812    -4986.876   -5392.3575   -1355.8313 
    3150    310.32667   -6232.4854   -4984.0102   -5389.4244   -1355.6066 
    3200    306.72972   -6252.1203    -5018.116   -5727.5352   -2372.1251 
    3250    308.65299   -6294.2772   -5052.5354   -6336.8182   -4294.3293 
    3300    307.88081   -6326.7341   -5088.0988   -5953.2753   -2892.9397 
    3350    300.21924   -6321.1493   -5113.3373   -5892.1501   -2604.1604 
    3400    307.19538   -6333.9008    -5098.023   -5807.7406   -2373.1228 
    3450    308.86844   -6316.3307    -5073.722   -5637.0768   -1883.7211 
    3500    299.32746   -6281.6549   -5077.4307   -5387.3086   -1036.1566 
    3550    299.05986   -6263.2055   -5060.0577   -5474.1778   -1384.7166 
    3600     301.8751   -6214.3245   -4999.8508   -5190.5386   -637.61365 
    3650    311.35211   -6183.0757   -4930.4751   -4875.6074    183.46433 
    3700    315.38285   -6178.6285   -4909.8118   -5408.9567   -1669.0193 
    3750    306.34511   -6166.8401   -4934.3831   -5179.2309   -818.71126 
    3800     301.7282   -6179.6237    -4965.741   -5289.2115   -1081.6067 
    3850    304.28447    -6221.321   -4997.1541   -5619.0524   -2079.4766 
    3900    297.07924   -6224.6536   -5029.4741   -5628.6139   -2003.3778 
    3950    301.52467   -6253.3899    -5040.326   -5615.3605   -1922.7755 
    4000    315.35883   -6285.8199   -5017.0998    -5621.256   -2020.1511 
    4050    313.12712   -6292.5455   -5032.8038   -5617.2012   -1954.0826 
    4100    301.61958   -6319.1434   -5105.6977   -6069.8678   -3223.9504 
    4150    292.34515   -6341.3824   -5165.2486   -5784.4888   -2070.5883 
    4200    300.02127   -6358.5167   -5151.5011   -5538.7364   -1294.8206 
    4250    309.92445   -6345.2952   -5098.4381   -5575.3101   -1594.5438 
    4300    315.40718   -6340.0878   -5071.1732   -5726.7441   -2192.0696 
    4350    296.17816   -6277.7612   -5086.2069   -5201.8143   -386.56314 
    4400    300.45071   -6314.0339   -5105.2906     -5858.17   -2517.4452 
    4450    293.40074   -6285.4641   -5105.0836   -5431.8863   -1092.7488 
    4500     308.1531   -6307.2584   -5067.5276   -5706.8656   -2137.7907 
    4550    295.43901   -6204.3649   -5015.7843    -5065.569   -166.46819 
    4600    314.32148   -6193.6725   -4929.1258   -4871.1981    193.69619 
    4650    309.97989   -6158.2102   -4911.1301   -4758.3108    510.99066 
    4700    307.18825   -6210.2488   -4974.3998   -5445.8872   -1576.5392 
    4750    287.74303   -6202.3163   -5044.6973   -5470.4775   -1423.7053 
    4800    309.69576   -6297.8289   -5051.8919    -5755.877   -2353.9549 
    4850    298.23812   -6237.2011   -5037.3594   -5725.3349   -2300.4228 
    4900    301.65204   -6225.4101   -5011.8338   -5360.1544   -1164.6995 
    4950    304.35204   -6264.0819   -5039.6432   -5911.0715    -2913.844 
    5000    311.22536    -6298.346   -5046.2553   -5934.3985   -2969.7348 
    5050    291.20954   -6211.8636   -5040.2985   -5432.9516   -1312.9365 
    5100    303.38599   -6212.1437   -4991.5915   -5329.9352   -1131.3388 
    5150    316.87907   -6229.7763   -4954.9401   -5242.4259   -961.28244 
    5200    315.74224   -6218.5109   -4948.2483   -5458.5712   -1706.3953 
    5250    308.54534   -6229.7498   -4988.4411   -5223.6292   -786.41195 
    5300     297.1277   -6232.3374   -5036.9629   -5811.9171   -2591.2581 
    5350    297.83867    -6238.561   -5040.3262   -5621.3637   -1942.8479 
    5400     308.4982   -6275.1707   -5034.0516   -5560.5774    -1760.574 
    5450    305.96505   -6284.0613   -5053.1333   -5750.7977     -2332.82 
    5500    296.92111   -6256.1348   -5061.5915    -5824.965   -2552.5352 
    5550    308.04058   -6255.5054   -5016.2274    -5578.364    -1879.648 
    5600    314.17666   -6204.5643   -4940.6002   -5439.5177   -1668.2585 
    5650    314.10746   -6141.6189   -4877.9332    -5199.136   -1074.0241 
    5700    302.44593   -6100.2146   -4883.4443   -5191.0857   -1028.6779 
    5750     301.8504   -6137.8112   -4923.4368   -5029.8945    -355.9686 
    5800    309.93798   -6212.2772   -4965.3657    -5559.804   -1987.6572 
    5850    303.82692   -6219.0291    -4996.703   -5426.7384   -1437.9338 
    5900    312.69138   -6286.3653   -5028.3766   -5867.4516   -2805.6626 
    5950    298.84047   -6314.1513   -5111.8863   -6211.8504   -3678.0125 
    6000     289.8623   -6344.9571   -5178.8121   -6127.2226   -3171.2539 
    6050    297.27053   -6359.6743   -5163.7252   -6316.4195   -3854.3292 
    6100    317.58325   -6362.0619   -5084.3927   -6093.3093   -3373.5717 
    6150     314.1007   -6313.6149   -5049.9564     -5556.33   -1693.1904 
    6200    310.66596   -6339.4643   -5089.6241    -6067.847   -3270.9396 
    6250    296.73022   -6363.0837   -5169.3084   -5985.6914   -2729.7859 
    6300    289.27908    -6372.255   -5208.4563    -6162.286   -3189.3743 
    6350    291.63601   -6325.8403   -5152.5595   -5942.4956   -2641.3539 
    6400    307.83572   -6270.2338   -5031.7799   -5760.2453   -2435.8109 
    6450    312.99109   -6223.7064    -4964.512   -5218.9344   -850.72675 
    6500    305.20387   -6172.1941   -4944.3284   -5284.0748   -1136.0292 
    6550    302.97282   -6153.1638   -4934.2739   -5358.1755   -1417.4238 
    6600    301.93977   -6154.5779    -4939.844   -5390.2395    -1506.013 
    6650    313.11197   -6177.6716   -4917.9908   -5386.7596   -1567.4488 
    6700    306.98374   -6151.4342   -4916.4079   -5395.2866   -1601.2536 
    6750    306.92718   -6188.4891   -4953.6904    -5378.515   -1420.5102 
    6800    304.09483   -6234.2048   -5010.8009   -5405.1312   -1318.5444 
    6850    304.94266   -6276.9501   -5050.1353   -5521.2211   -1575.1963 
    6900    302.90671    -6287.465   -5068.8411   -5860.7363   -2647.9049 
    6950    300.24063   -6291.4994   -5083.6013   -5716.0213   -2114.6587 
    7000    300.69649     -6298.74   -5089.0079   -5971.4287   -2950.6004 
    7050    296.99396   -6260.6053   -5065.7689   -5711.2433   -2158.3093 
    7100    299.30785    -6235.604   -5031.4586   -5328.5756   -993.48698 
    7150    310.02297   -6257.6346   -5010.3812   -5617.8252   -2031.1452 
    7200    306.32773   -6266.0549   -5033.6678   -5516.7314   -1615.2471 
    7250    311.86318   -6321.4654   -5066.8086   -5974.4622   -3034.9727 
    7300     291.9019   -6286.8576   -5112.5071   -6010.3186   -3002.0631 
    7350    293.10281   -6289.4507   -5110.2688   -5923.9926   -2720.8943 
    7400    312.43736   -6334.9888   -5078.0221   -6119.9014   -3483.7908 
    7450    297.17442   -6297.6083   -5102.0459    -5946.672   -2824.2242 
    7500    306.99367   -6369.0788   -5134.0126   -6193.1589   -3541.5276 
    7550    306.85068    -6401.523    -5167.032   -5572.1699   -1354.6824 
    7600    297.81743   -6368.9211   -5170.7718   -6245.3753   -3593.2128 
    7650    305.20294   -6350.3239    -5122.462   -5971.4412   -2838.7799 
    7700    304.00401   -6287.9139   -5064.8753   -5753.5064   -2302.6147 
    7750    324.30199   -6323.9721   -5019.2728   -5909.8469   -2977.8632 
    7800    306.40456   -6302.5767   -5069.8805    -6071.894   -3350.4893 
    7850    298.24953   -6361.6412   -5161.7535   -6146.3769   -3292.3409 
    7900    294.39997   -6405.2935    -5220.893   -5830.4966   -2038.3663 
    7950    290.75245   -6366.6679   -5196.9418   -6298.8076   -3684.3712 
    8000    303.28328   -6310.9045   -5090.7655   -5725.0974   -2121.0512 
    8050    315.11172   -6241.0815   -4973.3555   -5336.0048    -1212.611 
    8100    303.29803   -6131.4295   -4911.2312   -5142.1355    -772.0877 
    8150    314.26483   -6167.4315   -4903.1127   -5247.0902   -1150.1773 
    8200    312.52549   -6207.5804   -4950.2592   -5662.0339   -2380.0016 
    8250    304.22274   -6223.7255    -4999.807   -5164.3181   -550.08526 
    8300    295.61277   -6228.6958   -5039.4161   -5553.8984   -1720.3036 
    8350      305.207   -6229.3729   -5001.4946   -5223.1877   -741.28761 
    8400    307.64229   -6182.2635   -4944.5878    -5123.233   -597.34601 
    8450    307.30325   -6157.6602   -4921.3484   -5214.6415   -980.70051 
    8500    315.53904   -6199.2704   -4929.8253   -5411.7394   -1611.4035 
    8550    296.31546    -6206.875   -5014.7682   -5388.5075   -1249.6933 
    8600    302.10995   -6311.3175    -5095.899   -5923.0532   -2765.8024 
    8650    301.13651   -6364.0176   -5152.5153   -6333.8315   -3950.0339 
    8700    300.60331   -6393.3077   -5183.9505   -6003.1941   -2739.3513 
    8750    286.08791   -6334.0646   -5183.1044   -5997.6428   -2723.6185 
    8800    308.51019   -6333.9737   -5092.8064   -5935.6221   -2818.1709 
    8850      316.626   -6281.0902   -5007.2721   -5345.5309    -1131.055 
    8900    313.52698   -6236.8359   -4975.4855   -5567.6837   -1980.1669 
    8950    311.99178   -6251.9502   -4996.7761    -5546.465   -1838.0261 
    9000     303.0936   -6245.1144   -5025.7386   -5323.2928   -994.94892 
    9050    307.45365   -6263.2486   -5026.3318   -5834.2229   -2701.3911 
    9100    307.58348    -6243.578   -5006.1389   -5524.7087   -1733.9713 
    9150    308.48806   -6191.3054   -4950.2271   -5347.2011   -1327.3841 
    9200    316.15082   -6180.8966   -4908.9903   -5382.3684   -1582.8614 
    9250     304.7354   -6142.5109   -4916.5299   -5050.1249   -446.70913 
    9300    297.12535   -6155.6392   -4960.2742   -4944.1301    53.981953 
    9350    299.05056    -6213.211   -5010.1008   -5673.9033   -2219.5943 
    9400    283.21463    -6156.249   -5016.8482   -5223.2796   -690.25607 
    9450    309.82563   -6194.4484   -4947.9889   -5184.6515   -791.34221 
    9500    323.95833    -6190.241   -4886.9243   -5220.9806   -1117.0032 
    9550    303.14626    -6134.981   -4915.3933    -5182.604   -893.48767 
    9600    308.12537   -6222.5562   -4982.9371   -5499.0521   -1725.7631 
    9650    309.67277   -6331.8736   -5086.0291   -5955.9203   -2908.7047 
    9700    301.31274   -6367.8947   -5155.6834   -6052.5307   -2998.8391 
    9750    298.38034   -6385.0536   -5184.6397   -6124.4694   -3142.5621 
    9800    304.01522   -6400.6988   -5177.6152   -6147.0174   -3241.4452 
    9850    306.94471   -6366.7845   -5131.9153   -5706.6026   -1921.6146 
    9900    306.93236    -6313.454   -5078.6345   -5776.9654   -2335.0486 
    9950    298.56064   -6228.6366   -5027.4973   -5567.8137   -1806.6864 
   10000    307.52362   -6195.5088   -4958.3106   -5734.1767   -2594.3076 
   10050    309.29726   -6166.2719   -4921.9381   -5282.2291   -1204.7253 
   10100    305.49996   -6167.3859   -4938.3291   -5270.1173    -1109.419 
   10150    297.42678   -6180.0269   -4983.4493   -5596.8572   -2051.0869 
   10200    306.76265   -6254.7279   -5020.5911   -5734.2967   -2386.4576 
   10250    306.14979   -6276.0949   -5044.4237   -5733.6555   -2304.6236 
   10300    296.91826     -6272.94   -5078.4082   -5668.8372   -1974.2509 
   10350    307.91226   -6324.0598   -5085.2981   -6569.3902   -4962.4431 
   10400     296.8384   -6273.5562   -5079.3456   -5759.4347   -2274.0524 
   10450    312.44362   -6286.7415   -5029.7496   -5777.5223   -2500.3699 
   10500     302.8522   -6226.7836   -5008.3789   -5457.1255   -1500.4996 
   10550    303.83635   -6221.3485   -4998.9845     -5584.41   -1957.5205 
   10600    316.78421   -6282.9771   -5008.5225   -5819.7016   -2712.3854 
   10650    309.35879   -6329.3733   -5084.7919   -6129.1592     -3492.11 
   10700    302.47956   -6393.9739   -5177.0684   -6315.9695    -3808.208 
   10750    295.92948   -6423.4874   -5232.9335   -5736.4874   -1683.7618 
   10800    301.64989   -6421.3996   -5207.8319   -5547.3477   -1135.2581 
   10850    311.44711   -6397.9229     -5144.94   -6031.1167   -2963.1592 
   10900    315.02881   -6359.1083   -5091.7159    -5825.538   -2453.7225 
   10950    309.01392   -6311.5794   -5068.3855   -5753.5128   -2290.8988 
   11000    312.83525   -6346.0486   -5087.4812   -6140.6245   -3521.4548 
   11050    307.48378     -6397.86    -5160.822   -6338.2284   -3936.9606 
   11100     290.6132   -6404.5166   -5235.3507   -6233.1683   -3336.4594 
   11150    284.10124   -6375.2453   -5232.2776   -5988.6315   -2529.0633 
   11200    305.50855   -6378.3735   -5149.2821   -5807.4858    -2200.873 
   11250    320.72022   -6360.8094   -5070.5199   -5928.2836   -2868.1531 
   11300    310.73726   -6321.6629   -5071.5358   -5776.5593   -2357.4268 
   11350    300.82461   -6354.1466   -5143.8992   -6007.5918    -2887.978 
   11400    294.54515   -6393.6403   -5208.6557   -6451.7493   -4156.6023 
   11450    290.20212   -6388.8543   -5221.3421   -6075.2579   -2855.2865 
   11500    304.96208   -6393.1329   -5166.2399   -6198.9841    -3453.245 
   11550    313.26823   -6363.9347   -5103.6253   -5952.4971   -2838.4209 
   11600    304.09559   -6300.6899   -5077.2829   -5367.4989   -970.41155 
   11650    309.59372   -6341.4994    -5095.973   -5760.2652   -2221.2314 
   11700    303.67508   -6362.5112    -5140.796   -6361.4167   -4081.4587 
   11750    299.81634   -6374.6482   -5168.4571   -6201.8744   -3455.4959 
   11800    296.89918   -6368.7247   -5174.2696   -6365.3047   -3982.5314 
   11850     304.0475    -6353.842   -5130.6285    -5921.042   -2642.9501 
   11900    305.68554   -6295.4834   -5065.6799   -5663.3033   -1998.3069 
   11950    314.85979   -6288.8957   -5022.1833   -5989.4077   -3234.1632 
   12000    316.49172   -6300.5682   -5027.2904   -5358.6471   -1107.9762 
   12050    303.62198   -6284.1102   -5062.6086   -5950.5665   -2969.1152 
   12100    302.33937   -6294.0534   -5077.7119    -5924.277   -2830.7078 
   12150    303.62231   -6268.0165   -5046.5136   -5719.2145    -2249.348 
   12200    308.91449   -6206.3123   -4963.5184    -5263.003   -1001.4036 
   12250    319.59073   -6205.4061   -4919.6607   -5222.1753   -1011.5352 
   12300    314.09544   -6226.7653    -4963.128   -5158.3246   -652.69014 
   12350    303.23353   -6265.2977   -5045.3588   -5588.4782   -1816.0588 
   12400    301.45097   -6321.8948   -5109.1274   -5934.3978   -2759.5032 
   12450     299.1984   -6346.7932   -5143.0881   -5925.0133   -2614.5675 
   12500    298.16929   -6364.0518   -5164.4869   -6070.2506   -3028.6534 
   12550     308.1172   -6418.0011   -5178.4149   -6342.4839   -3892.3637 
   12600    304.03386    -6428.341   -5205.1824   -6551.6658   -4502.3127 
   12650    306.12551   -6438.8255    -5207.252   -6284.4235   -3601.7993 
   12700    295.35032   -6371.5089   -5183.2851   -6180.7683   -3335.3412 
   12750    309.91173   -6364.6478    -5117.842   -6114.4262   -3332.3351 
   12800     309.6561   -6326.9442   -5081.1667   -5639.8721   -1868.1747 
   12850    306.27292   -6305.4688   -5073.3023   -5414.2542   -1140.0604 
   12900    309.74998   -6308.0584   -5061.9032   -5760.4888      -2335.9 
   12950    300.55998   -6244.0142   -5034.8313   -5619.4499   -1954.8223 
   13000    304.91073   -6233.3472   -5006.6608   -5494.6257   -1631.6357 
   13050    313.22169   -6207.4284   -4947.3062   -5382.7109   -1455.8873 
   13100     302.2053   -6142.2649   -4926.4627   -5110.7645   -616.26024 
   13150    309.62795   -6176.0973   -4930.4331   -5170.0626   -801.26284 
   13200    304.14329   -6167.0212   -4943.4224   -5048.0692   -349.91356 
   13250    306.74747   -6219.3213   -4985.2455   -5328.4566   -1147.6143 
   13300    302.02106   -6260.5814   -5045.5205   -5668.1807   -2082.0242 
   13350    302.81152   -6283.7441   -5065.5031   -5777.9255   -2382.1672 
   13400    300.23925   -6221.6494   -5013.7569   -5367.7587   -1183.6959 
   13450    312.02828   -6158.1475   -4902.8265   -5140.0698   -793.28392 
   13500    327.05136   -6138.6049   -4822.8446   -4962.3981   -466.63303 
   13550    309.37289   -6103.8665   -4859.2284   -5192.3197   -1113.7761 
   13600    305.08273   -6156.0555   -4928.6772   -5298.5561    -1236.785 
   13650    300.81156   -6197.7949   -4987.5999   -5551.9505   -1887.0511 
   13700    295.24223   -6189.3597   -5001.5707   -5755.0825   -2519.5602 
   13750    302.69613   -6152.1382   -4934.3614   -5197.2043   -878.88275 
   13800    317.23519   -6135.8812   -4859.6123   -5060.5675    -671.9452 
   13850    301.56283   -6082.5135   -4869.2961   -5191.8303   -1078.4757 
   13900    310.97875   -6165.0815   -4913.9829   -5473.9227   -1872.3024 
   13950    305.34694   -6203.2595   -4974.8183   -5518.5736   -1818.1853 
   14000    295.93135   -6248.7011   -5058.1398    -5730.423   -2247.9516 
   14050    297.38536   -6294.9657   -5098.5546   -5930.2601   -2781.0206 
   14100    304.07114   -6336.2494   -5112.9408    -5745.519   -2115.1876 
   14150    308.65969   -6410.8059   -5169.0371   -6365.9976   -4002.3447 
   14200    292.99687   -6426.6838   -5247.9281   -6651.8131   -4694.2499 
   14250    293.99199   -6441.7132    -5258.954   -6556.6485   -4339.1745 
   14300    309.44398   -6437.3375   -5192.4134   -6397.3105   -4028.8828 
   14350    309.33146   -6384.5263   -5140.0549   -6074.4213   -3124.2936 
   14400    301.29413   -6330.8507   -5118.7143   -5765.3924   -2162.3341 
   14450    309.30505   -6341.7304   -5097.3653   -5627.6615   -1773.1814 
   14500    300.55735   -6314.0116   -5104.8393   -5682.0104   -1929.9196 
   14550    301.97751   -6313.6222   -5098.7365   -5524.0021   -1421.9847 
   14600    301.05478   -6295.3386   -5084.1652   -5689.8666   -2025.3184 
   14650    307.45391   -6301.8672   -5064.9494   -5602.4734   -1797.3494 
   14700    311.09004   -6320.5651   -5069.0187   -5869.2231   -2675.6887 
   14750      314.055   -6381.0308   -5117.5561   -6320.1701   -4021.2483 
   14800    298.14378   -6393.7551   -5194.2929    -6442.624   -4174.1154 
   14850    304.22204   -6454.6734   -5230.7577   -6066.1366   -2793.3038 
   14900    305.42778   -6456.4312   -5227.6647   -6208.2833     -3278.95 
   14950    301.23258    -6414.938   -5203.0493   -6096.6199   -2987.8829 
   15000    302.99593    -6400.856   -5181.8731   -6338.5946   -3867.7951 
   15050    311.64562   -6416.4356   -5162.6541   -6291.0317   -3773.0199 
   15100    309.41194   -6397.4348   -5152.6396   -6054.2511   -3014.7696 
   15150    303.84036    -6366.631   -5144.2508   -5606.0914   -1544.2826 
   15200    306.80517   -6379.8956   -5145.5877   -6006.6771   -2879.2735 
   15250    297.35888    -6362.842   -5166.5375   -5730.0645   -1884.2973 
   15300     312.2889    -6440.707   -5184.3375   -6468.4062   -4293.6133 
   15350     301.6031   -6435.5079   -5222.1285   -6597.7346   -4599.6921 
   15400    295.69951   -6435.2653   -5245.6366   -6491.0309   -4164.2953 
   15450    302.43012   -6445.8529   -5229.1463   -6310.0746   -3614.3613 
   15500    312.43061   -6445.2581   -5188.3185   -6372.9111   -3960.9894 
   15550     300.8343    -6359.158   -5148.8716   -5976.1118   -2766.0901 
   15600     307.0766   -6314.6027   -5079.2028   -5515.8916   -1460.1811 
   15650    302.43533    -6240.622   -5023.8944   -5218.2942   -650.02561 
   15700    303.06725     -6213.85   -4994.5802   -5317.9538   -1081.2825 
   15750    304.07104   -6208.0185   -4984.7103    -5267.599   -945.91108 
   15800    308.33064   -6245.0421   -5004.5971    -5503.805   -1669.2296 
   15850     300.3073    -6262.696   -5054.5297   -5854.6257   -2675.3265 
   15900     295.7922   -6286.0886    -5096.087   -5901.1145   -2691.8161 
   15950    292.61111   -6286.3333   -5109.1295   -5881.2023   -2581.6234 
   16000    314.98963   -6355.6369   -5088.4021   -6186.9354   -3673.2282 
   16050    306.67008   -6338.4922   -5104.7278   -5871.9543   -2565.4186 
   16100    293.37716   -6311.8463   -5131.5606   -5624.4346   -1648.0505 
   16150     304.9834   -6358.8379   -5131.8592   -5598.7483   -1561.1635 
   16200    302.12214    -6367.396   -5151.9284   -5917.1951   -2558.8656 
   16250    288.23417   -6331.4203   -5171.8254   -5569.0106   -1328.0907 
   16300    311.48489   -6426.7948     -5173.66   -6231.5554    -3537.345 
   16350    300.25061   -6417.1485   -5209.2103   -6162.7814   -3188.5096 
   16400    294.07242   -6426.9302   -5243.8474   -6720.7115   -4938.2741 
   16450    301.15463   -6453.2299   -5241.6547   -6625.0623   -4625.7781 
   16500    311.83805   -6470.6302   -5216.0745   -6157.7834   -3148.8453 
   16550    311.85603   -6462.3422   -5207.7142   -6451.6482   -4159.4125 
   16600    309.46714   -6477.4336   -5232.4164   -6266.5892   -3458.0222 
   16650    303.11701   -6484.8558   -5265.3858   -6142.1121   -2931.5593 
   16700    295.06287   -6452.7719   -5265.7045   -6405.2363   -3810.3169 
   16750    296.49397   -6420.9203   -5228.0954   -6214.1248   -3297.0424 
   16800    306.37409   -6382.7141   -5150.1405   -6143.3877   -3321.1769 
   16850    321.61798   -6391.9655   -5098.0642   -6110.4421   -3385.1455 
   16900    311.87005    -6371.486   -5116.8016   -6031.9607   -3060.0693 
   16950    302.44895   -6403.7702   -5186.9878   -6161.2762   -3257.7831 
   17000    292.80453   -6447.3223   -5269.3404   -6190.7643   -3081.0173 
   17050    298.82581   -6481.4279   -5279.2217   -6242.1654   -3219.8491 
   17100    301.84833   -6446.5653   -5232.1993   -5958.9067   -2429.9327 
   17150    320.70406    -6462.187   -5171.9625   -6160.1018   -3304.0973 
   17200    307.72108   -6406.8889   -5168.8962   -6171.3092    -3351.825 
   17250    295.39421    -6351.879   -5163.4786   -5757.8552   -1987.4509 
   17300    300.90027   -6354.6786   -5144.1267   -5732.9927   -1969.0243 
   17350    300.54702   -6311.5888   -5102.4581   -5618.6467   -1726.0092 
   17400    311.84333   -6308.5135   -5053.9366   -5314.4888    -871.2229 
   17450    302.41973   -6258.8045   -5042.1397   -5351.6649    -1034.977 
   17500    317.27933   -6303.5022   -5027.0558   -5419.2854   -1311.5204 
   17550    314.09317   -6288.9394   -5025.3111   -5580.8063   -1857.4406 
   17600    292.50416   -6212.2061   -5035.4326   -5152.2607   -390.64478 
   17650    307.79818   -6283.9932   -5045.6904    -5306.467   -871.97362 
   17700    293.59683   -6273.9874   -5092.8181   -5201.4879   -363.36542 
   17750     306.8788   -6351.6193   -5117.0152   -5716.9884   -2006.1643 
   17800    315.50719   -6405.5337   -5136.2168   -6105.6311   -3241.4856 
   17850     305.9691   -6413.2092   -5182.2649   -6313.2602   -3781.7731 
   17900    289.18854   -6383.5884    -5220.154   -6221.5546   -3348.4399 
   17950    289.49424   -6351.6649   -5187.0006   -5684.0057   -1661.8639 
   18000    315.95899   -6350.3451   -5079.2105    -5550.782   -1576.8204 
   18050     315.8425   -6284.7522   -5014.0862   -5353.7249   -1135.6691 
   18100    297.11726    -6222.484   -5027.1515   -5263.7247    -791.0432 
   18150    310.78267   -6282.5924   -5032.2826   -5636.2817    -2019.626 
   18200    304.00398    -6235.165   -5012.1266   -5399.0331   -1293.7213 
   18250    304.97509   -6202.4628   -4975.5175   -5021.8226   -154.83292 
   18300    311.18214    -6206.753   -4954.8361   -5228.9462    -916.5575 
   18350    306.83281     -6193.27    -4958.851   -5290.4829   -1108.8963 
   18400    304.33805   -6199.6941   -4975.3117   -5326.7555   -1175.1426 
   18450    305.75887   -6230.9331   -5000.8346   -5410.6516   -1370.3281 
   18500    290.53496   -6183.4754   -5014.6242   -5486.8172   -1578.8983 
   18550    297.28635   -6170.2551   -4974.2424   -5318.7933   -1152.0945 
   18600    307.49763   -6156.7383   -4919.6445   -5024.3188   -350.00537 
   18650    307.23008   -6164.5328   -4928.5155     -5268.35   -1136.3239 
   18700    310.83031   -6194.9694    -4944.468   -5587.4208   -2149.8777 
   18750    300.54417   -6172.1504   -4963.0311   -5236.1271   -913.16665 
   18800    317.54025   -6252.9949   -4975.4987   -5580.3692   -2022.5397 
   18850    298.77691   -6216.7169   -5014.7075   -5762.8452   -2501.5904 
   18900    309.44215    -6243.407   -4998.4903   -5688.5479   -2307.3848 
   18950    303.58465   -6230.8295   -5009.4781   -5483.6935    -1585.661 
   19000    295.84336   -6221.7583   -5031.5509   -5631.6853   -2006.7033 
   19050    306.99507   -6281.3005   -5046.2287   -5819.8024   -2586.6423 
   19100    298.44962   -6272.7254   -5072.0328   -5938.3347   -2896.7028 
   19150      293.035   -6269.7726   -5090.8635   -5739.4678   -2168.7747 
   19200    297.49853   -6287.2299   -5090.3636   -5764.5613   -2254.3531 
   19250    313.71921   -6340.4651   -5078.3414   -5826.8377   -2502.7895 
   19300    307.95374   -6347.3874   -5108.4587   -5961.4375   -2852.1537 
   19350    294.83841   -6343.1516   -5156.9872   -5761.5275   -2021.4355 
   19400    307.86625   -6405.4009   -5166.8242    -6476.826   -4380.3273 
   19450    305.66449   -6414.4988     -5184.78     -6353.81    -3908.952 
   19500    313.02075   -6472.8944   -5213.5806   -6457.1738   -4158.2729 
   19550    298.42555     -6467.73   -5267.1341   -6892.8442   -5435.9788 
   19600    302.93391   -6490.3603   -5271.6269   -6369.3212   -3670.4227 
   19650    312.51388   -6485.9859   -5228.7113   -6494.0516   -4230.9901 
   19700    302.32766   -6396.4607   -5180.1663   -6457.1462   -4269.9099 
   19750    301.70583   -6322.2736   -5108.4809   -6031.5011    -3086.355 
   19800    316.14768   -6279.4491   -5007.5554   -5251.2507   -814.85766 
   19850     311.7708   -6236.7686   -4982.4835   -5076.9231   -315.78298 
   19900    300.53055   -6264.3763   -5055.3118   -5773.5736   -2401.6924 
   19950    298.85278   -6336.7737    -5134.459   -5910.5311   -2594.9961 
   20000    302.14135    -6382.251   -5166.7062   -6080.7899   -3056.4735 
   20050    298.26456   -6377.2341   -5177.2859   -6140.4651   -3220.6367 
   20100    306.03091   -6408.6671   -5177.4742   -6104.2705   -3098.9812 
   20150    301.58062    -6404.815    -5191.526   -6219.0224   -3435.6979 
   20200    291.26658   -6355.3974   -5183.6028   -5914.6575   -2444.4691 
   20250    318.11995   -6437.8357   -5158.0073   -5998.4896   -2810.3681 
   20300    300.62162   -6440.4088   -5230.9779   -6447.3906   -4067.3878 
   20350    291.22062   -6443.2063   -5271.5966   -6556.1259   -4295.1533 
   20400    309.41783   -6484.7851   -5239.9662   -6611.5264   -4586.1635 
   20450    316.32331   -6496.0968   -5223.4965   -6285.8236   -3552.1633 
   20500    307.47903    -6484.165   -5247.1461    -6546.345   -4344.2048 
   20550    298.40002   -6486.3871    -5285.894   -6805.2551   -5080.3737 
   20600    287.09026   -6444.7371   -5289.7443   -6302.8333   -3387.5233 
   20650    302.10773   -6463.3741   -5247.9645   -6215.1742   -3234.1138 
   20700    303.89499   -6422.1462   -5199.5463   -6621.0604   -4753.1972 
   20750    306.98048   -6366.8508   -5131.8376   -5553.6754   -1410.5228 
   20800    310.21943   -6353.4335   -5105.3897   -5496.2376   -1306.9002 
   20850    303.57763   -6346.0395   -5124.7163   -5754.2889   -2105.1376 
   20900    306.66635   -6357.9323   -5124.1829   -5755.3357   -2110.4214 
   20950    307.51682   -6402.2638   -5165.0929   -6069.3533   -3023.6268 
   21000    307.35609     -6471.68   -5235.1557    -6388.059   -3855.0282 
   21050    288.09035   -6453.2481   -5294.2318   -6735.0064   -4817.5997 
   21100    305.18224   -6475.4024   -5247.6237   -6569.7638   -4420.9147 
   21150    311.18119   -6442.3368   -5190.4238    -6121.033    -3111.731 
   21200    314.43918   -6401.7744   -5136.7542   -6223.0017   -3632.1473 
   21250    299.54094   -6309.4806   -5104.3974   -5428.0687   -1082.2779 
   21300    310.53555   -6323.6906    -5074.375   -5946.2374   -2915.2958 
   21350    302.65592   -6293.9367   -5076.3217   -5472.0032   -1323.0629 
   21400    310.52305   -6319.2499   -5069.9846   -6252.5328   -3954.1533 
   21450    312.03893   -6320.8743   -5065.5105   -5877.5689   -2715.3257 
   21500    295.12452   -6246.1764   -5058.8609   -5420.4072   -1208.9228 
   21550    307.59369   -6226.6784   -4989.1982   -5197.7407   -697.31517 
   21600    307.55987   -6189.4176   -4952.0736   -5196.5171   -817.35983 
   21650    319.28453   -6238.0355   -4953.5219   -5260.2716   -1025.6965 
   21700    302.64724   -6227.3634   -5009.7833   -5380.1676    -1238.475 
   21750    293.26791   -6243.0144   -5063.1683   -5585.5491   -1746.7143 
   21800    293.50613   -6246.6243   -5065.8198   -5518.0743   -1512.2289 
   21850    311.64798   -6294.2929   -5040.5019   -5396.8188   -1191.4371 
   21900    297.94168   -6223.0496   -5024.4004   -5141.4612   -391.42278 
   21950    301.13532   -6179.1569   -4967.6594   -4915.2173    175.35356 
   22000    309.77602   -6178.7247   -4932.4648   -4912.6356     66.30409 
   22050    304.39879   -6160.2442   -4935.6174   -5249.4632   -1049.4241 
   22100    302.38608   -6164.2199   -4947.6905   -5209.2721   -874.66516 
   22150    308.36246    -6211.406    -4970.833   -5247.2067    -924.1265 
   22200     304.7258   -6242.9725   -5017.0302   -5354.1008   -1127.0823 
   22250    300.97852   -6284.6527    -5073.786   -5834.3665   -2543.1962 
   22300    295.15799   -6291.4609   -5104.0108   -5642.2158   -1799.6265 
   22350    305.41003   -6287.7295   -5059.0345   -5548.9182   -1638.0519 
   22400    302.30014   -6221.3397    -5005.156   -5364.3616    -1201.096 
   22450     307.9697   -6215.9098    -4976.917   -5167.8081   -638.29362 
   22500    305.50828    -6188.068   -4958.9777   -5293.4076   -1118.2524 
   22550    305.43845   -6162.9459   -4934.1364   -5219.9337   -955.63637 
   22600    310.97227   -6178.7297   -4927.6571   -5417.8668   -1639.1418 
   22650    313.98989   -6206.2939   -4943.0812    -5635.004   -2313.6215 
   22700    304.22491   -6204.1652    -4980.238   -5633.4419   -2184.1548 
   22750    300.72531    -6220.199    -5010.351   -5728.3282   -2400.7412 
   22800    310.05507   -6255.7676    -5008.385    -5528.917   -1740.5321 
   22850    301.84262   -6227.4301   -5013.0871   -5577.0434   -1885.7326 
   22900    305.96813   -6243.6534    -5012.713    -5498.663   -1624.8985 
   22950    309.60206   -6270.7527   -5025.1927   -5341.4964   -1057.6428 
   23000    308.89206   -6300.4334   -5057.7298    -5720.557   -2216.3328 
   23050    297.05314   -6306.3167   -5111.2422   -5600.8916   -1637.2682 
   23100     298.0392   -6342.3435    -5143.302   -5956.6159   -2719.5236 
   23150    302.04821   -6346.1977   -5131.0276   -6070.2943   -3140.6795 
   23200    313.02949   -6351.7406   -5092.3917   -5712.0266   -2071.9086 
   23250    299.33513   -6307.5511    -5103.296   -5665.6559   -1880.3947 
   23300    307.26767    -6355.787   -5119.6185   -5918.7624   -2672.1428 
   23350    310.84127   -6378.2123   -5127.6668   -5869.2024   -2479.5145 
   23400    291.74596   -6301.3063   -5127.5831   -5590.5753   -1548.1332 
   23450    304.89634   -6297.8811   -5071.2527   -5616.8749   -1824.4279 
   23500    318.05739   -6273.3211   -4993.7444    -5430.911   -1461.7786 
   23550    318.11138   -6226.3308   -4946.5369   -5447.8463   -1676.2566 
   23600     307.9243   -6173.9472    -4935.137    -5404.987   -1571.0641 
   23650    313.15672   -6207.7747   -4947.9139   -5456.8645    -1701.807 
   23700    308.16697   -6250.2587   -5010.4721   -5425.2533   -1386.9275 
   23750     298.9129   -6290.7625   -5088.2061   -5922.0734   -2788.2495 
   23800    308.39034   -6364.0586   -5123.3735   -6360.2769    -4135.904 
   23850    310.86732   -6412.1118   -5161.4615    -6170.027   -3372.3974 
   23900    306.03438   -6450.3325   -5219.1256   -6392.0753   -3922.0583 
   23950    292.37449   -6436.7413   -5260.4895   -6397.3718    -3801.458 
   24000    293.92619   -6404.1646   -5221.6702   -6077.6471   -2862.1786 
   24050    310.42601   -6333.9134   -5085.0386    -5667.206   -1946.6264 
   24100     311.7512   -6213.9585   -4959.7523   -5352.6118   -1313.6267 
   24150    319.05779    -6177.249   -4893.6476   -5361.7984   -1565.3821 
   24200      310.289   -6166.1885   -4917.8648   -5095.2111   -593.00284 
   24250    308.97356   -6250.3959   -5007.3644   -5578.3474   -1909.2282 
   24300     300.2917   -6305.6062   -5097.5027   -5716.7745   -2070.6942 
   24350     302.3087   -6387.9327   -5171.7146   -6127.8037   -3196.9295 
   24400    298.82069   -6415.6811   -5213.4956   -6586.2736   -4590.2355 
   24450    297.56299   -6393.6883   -5196.5627   -6315.8971   -3742.7819 
   24500    307.85419   -6374.9687   -5136.4405   -5895.8531   -2539.2912 
   24550    326.97226   -6432.7497   -5117.3076   -6236.0243   -3740.7165 
   24600    301.08752   -6420.0764   -5208.7712   -6733.7369   -5099.1139 
   24650    304.76356    -6482.917   -5256.8227   -6607.8164   -4517.3943 
   24700    300.50274   -6496.3286   -5287.3761   -6781.0216   -4994.3872 
   24750    300.79986   -6493.7263   -5283.5784   -6813.6781   -5116.2812 
   24800    312.42702   -6494.8056   -5237.8805   -6608.7069   -4583.7101 
   24850     314.0882   -6477.6031   -5213.9949   -6530.6652   -4402.6249 
   24900    304.65262    -6444.109   -5218.4611   -6106.0764   -2967.9695 
   24950    306.43062   -6499.1112   -5266.3101   -6836.8849   -5251.6198 
   25000    295.78052   -6524.8617   -5334.9071   -6168.3655   -2786.8821 
   25050    296.83679   -6513.9034   -5319.6994   -6617.7455   -4340.3503 
   25100    309.34863   -6483.2679   -5238.7274   -6505.4669   -4235.6685 
   25150    312.75125   -6435.4875   -5177.2579   -6002.5287   -2759.5046 
   25200    299.82252   -6374.3558   -5168.1399   -5988.8373   -2744.2122 
   25250    311.89994   -6429.9246     -5175.12   -6548.1405   -4591.0463 
   25300    303.85942   -6449.5862   -5227.1293   -6315.4807   -3639.1821 
   25350    306.63383   -6496.9482   -5263.3297   -6986.0814   -5760.4626 
   25400    302.42588   -6502.0062   -5285.3166   -6793.7165   -5043.7223 
   25450    310.70171   -6529.6993   -5279.7153   -6232.9824   -3187.4931 
   25500    314.10058   -6532.0119   -5268.3539   -6005.9007   -2466.1772 
   25550    300.12232   -6483.3828   -5275.9607   -6446.0478   -3912.4865 
   25600    291.20142   -6419.0747   -5247.5423   -6342.6724   -3661.8484 
   25650    304.89039   -6401.1298   -5174.5252   -5874.9388   -2342.0125 
   25700     306.9694   -6336.6131   -5101.6445   -5546.4571   -1487.3451 
   25750     308.3942   -6291.9188   -5051.2181    -5410.657   -1201.8762 
   25800    300.21212   -6283.7136   -5075.9303   -5481.1275   -1354.8811 
   25850    307.21256   -6347.5726   -5111.6257   -6002.9312   -2980.3084 
   25900    300.06431    -6355.826   -5148.6372   -5914.0524   -2559.3621 
   25950    295.09613    -6365.941   -5178.7398   -6034.8755   -2862.7097 
   26000    302.95842   -6405.5508   -5186.7187   -6308.0394   -3749.4236 
   26050     305.3142    -6441.746   -5213.4364   -6277.9769   -3559.5641 
   26100    302.60194   -6465.7543   -5248.3564   -6111.8174   -2887.2034 
   26150    293.58235   -6439.3243   -5258.2132   -6384.0357   -3764.4764 
   26200    307.40777   -6464.9207   -5228.1885   -6367.6312    -3810.019 
   26250    307.32198   -6461.0496   -5224.6626   -6364.0245   -3809.7489 
   26300    313.45727   -6490.1518   -5229.0819   -6866.2159   -5474.1777 
   26350    300.51753   -6436.9566   -5227.9445   -6198.9259   -3246.7254 
   26400    308.87259   -6435.1946   -5192.5693   -6102.4969   -3042.5765 
   26450    296.55698   -6356.3631   -5163.2848   -5756.8165   -1984.6257 
   26500    308.25432   -6350.8591   -5110.7212   -5873.0481   -2549.0358 
   26550    310.29568   -6312.9195   -5064.5689   -5624.5977   -1872.6001 
   26600    301.27206   -6279.5296    -5067.482   -5473.9811   -1359.2341 
   26650    293.93367   -6245.3885    -5062.864   -5498.2624   -1455.8664 
   26700    312.34777   -6275.4632   -5018.8569   -5440.7412   -1410.6787 
   26750    302.75378   -6236.3647    -5018.356   -5437.5428   -1401.6589 
   26800    292.87384   -6191.2319   -5012.9712   -5385.7011   -1246.3182 
   26850    305.02088   -6183.8285    -4956.699   -5119.6012   -544.70556 
   26900    319.57481   -6186.4044    -4900.723   -5262.3505   -1209.1944 
   26950     314.4728   -6189.2993   -4924.1438   -4973.4594   -164.89936 
   27000    300.89716   -6215.1156   -5004.5762   -5431.8395   -1428.6643 
   27050    301.94901   -6288.3238   -5073.5527   -5758.5197   -2290.3628 
   27100    302.11386   -6345.8498   -5130.4155   -6155.3624   -3427.1732 
   27150    300.45982   -6359.2644   -5150.4845   -5879.9693   -2439.2196 
   27200     306.5107   -6370.2595   -5137.1363   -6459.2262   -4420.7471 
   27250    320.24682   -6393.5299    -5105.145   -5826.6193   -2412.4347 
   27300    302.21337   -6295.6429   -5079.8083    -5809.699   -2440.5768 
   27350    313.25181   -6301.7038   -5041.4604   -5603.7676   -1880.2183 
   27400    308.71334   -6248.8507   -5006.8661   -5345.5934   -1132.6218 
   27450    320.06317   -6270.1938   -4982.5477   -5271.4644   -966.06716 
   27500     306.0837   -6254.1497   -5022.7444   -5329.2546   -1024.8957 
   27550     294.4337   -6293.2104   -5108.6742   -5520.1742    -1375.956 
   27600    301.75576   -6359.0116    -5145.018   -5892.4718   -2499.3035 
   27650    308.38469   -6392.9342   -5152.2718   -5973.4932   -2745.9645 
   27700    307.95811   -6388.2637   -5149.3175   -6047.9154   -3004.6926 
   27750     312.1662   -6420.0879   -5164.2121    -6187.358    -3421.151 
   27800    304.08166   -6425.5399    -5202.189    -6309.392   -3702.2176 
   27850    299.30074   -6412.2809   -5208.1641   -6133.9019   -3095.4418 
   27900    306.94278   -6433.8242   -5198.9628    -6137.644   -3138.7216 
   27950    298.76811   -6430.9119   -5228.9379   -6167.5572   -3138.5144 
   28000    317.97047   -6522.4337   -5243.2068   -6758.0288   -5065.1961 
   28050    305.24937   -6519.7828   -5291.7341   -6771.6553   -4948.4965 
   28100    297.99695   -6521.8306   -5322.9591    -6923.111   -5350.5185 
   28150    305.49699   -6531.4079    -5302.363   -6510.2742   -4038.9611 
   28200    296.71167   -6466.3775   -5272.6768   -6319.9115    -3501.698 
   28250    305.76664   -6463.4874   -5233.3576   -6538.4862   -4364.0325 
   28300    295.22486   -6380.5361    -5192.817   -5976.1741   -2619.3555 
   28350     331.4653   -6457.7483   -5124.2303   -6465.8281   -4485.9764 
   28400     295.8923   -6356.7711   -5166.3668   -5747.3787   -1942.7623 
   28450    292.35461   -6328.2635   -5152.0917   -5904.1475   -2514.6918 
   28500    308.25774   -6310.5554   -5070.4037   -5768.8785   -2335.5296 
   28550     309.0667   -6265.2105   -5021.8043   -5151.6035   -434.01703 
   28600    309.18488   -6248.5025   -5004.6208   -5589.2119   -1954.7305 
   28650    302.36745   -6211.1488   -4994.6943   -5357.3789   -1212.7291 
   28700    305.91219     -6212.36   -4981.6447    -5329.872   -1164.3874 
   28750    300.79176   -6194.1648   -4984.0495   -4701.7238    944.02835 
   28800    295.89362   -6178.1613   -4987.7516   -5292.5894   -1019.3033 
   28850    304.53334   -6174.6335   -4949.4654   -5159.4453    -702.1216 
   28900    308.04002   -6140.1435   -4900.8677   -5305.8383   -1354.1232 
   28950    308.05297   -6116.1797   -4876.8519   -5153.4558    -924.8964 
   29000    314.70973   -6185.6083   -4919.4996   -5253.5173   -1116.8739 
   29050    301.10997    -6208.436   -4997.0405   -5582.6046   -1957.9839 
   29100    293.64873   -6214.0801   -5032.7019   -5698.0537   -2224.7745 
   29150    309.14513   -6251.7758   -5008.0541   -5547.6227    -1804.186 
   29200    314.18294   -6266.8697   -5002.8803   -5637.6971    -2122.673 
   29250    312.39251   -6282.1197   -5025.3334   -5828.5727   -2685.8369 
   29300    313.96345   -6318.7194    -5055.613   -5846.1694   -2643.4282 
   29350    307.96208   -6349.1982    -5110.236   -5903.6087   -2652.8451 
   29400    306.62783   -6367.8461   -5134.2517   -6064.6111   -3110.8952 
   29450    299.66107   -6329.4638   -5123.8973    -5660.353   -1793.7772 
   29500    298.11499   -6287.8932   -5088.5467   -5572.0906   -1616.8529 
   29550    304.36842   -6267.8367   -5043.3322   -5191.6457   -495.92449 
   29600    303.38909   -6251.9088   -5031.3441   -5473.7768   -1479.3874 
   29650    300.71714   -6244.4365   -5034.6214   -5563.3956   -1768.0922 
   29700    311.64257   -6295.9951   -5042.2259   -5722.9338   -2276.1215 
   29750    298.43064   -6297.0489   -5096.4326   -5640.8406   -1820.3677 
   29800    294.53182   -6306.9636   -5122.0327   -5799.7246    -2266.037 
   29850    305.87165   -6333.3134   -5102.7612   -6086.0477   -3287.8707 
   29900    302.35203   -6318.9659   -5102.5735   -5977.0036   -2923.8814 
   29950    311.84625   -6365.9828   -5111.3941   -6178.5898   -3568.4427 
   30000    314.24273   -6420.9656   -5156.7356   -6281.8524   -3762.1166 
   30050    300.06632   -6419.5925   -5212.3956   -6215.3909    -3353.772 
   30100    304.51511   -6427.0176   -5201.9229   -6458.7914   -4202.6626 
   30150    299.78333   -6366.7246   -5160.6663   -5959.1862   -2670.0562 
   30200    310.33092   -6332.1019   -5083.6096    -5640.622   -1862.5138 
   30250    310.69125   -6254.9836   -5005.0416   -5452.4899   -1496.1582 
   30300    315.69087   -6218.8832   -4948.8272   -5343.0582   -1318.2124 
   30350     315.3352   -6198.7942   -4930.1692   -5182.8843   -845.01787 
   30400    311.01522   -6231.4056   -4980.1603   -5598.5457   -2067.7304 
   30450    289.06416   -6217.0296   -5054.0956   -5465.2189   -1374.6964 
   30500    300.24356   -6277.5261   -5069.6162   -5689.3216   -2072.1442 
   30550    301.26599   -6274.6632     -5062.64   -5334.7098   -909.73516 
   30600    323.32051   -6353.0335   -5052.2828   -5704.6442   -2181.3376 
   30650    306.23434   -6307.6629   -5075.6516   -5523.8493    -1498.664 
   30700    306.75185   -6373.8443    -5139.751   -5905.7555   -2561.3327 
   30750    295.41151   -6396.3785   -5207.9085    -6159.514   -3181.9373 
   30800    307.33468   -6472.2733   -5235.8351   -6737.5986   -5021.5317 
   30850    296.50835   -6489.2297    -5296.347   -6902.2306   -5369.6838 
   30900     298.6324   -6517.7186   -5316.2906   -7070.5441   -5865.7967 
   30950    308.50719   -6517.9383    -5276.783   -6704.9121   -4775.3161 
   31000    308.52782   -6498.9796   -5257.7413   -6699.7332     -4821.67 
   31050    299.10171   -6465.2471    -5261.931   -5968.5056   -2362.6133 
   31100    316.76868   -6528.5527   -5254.1606   -6888.3321   -5464.2719 
   31150    299.37918    -6514.014   -5309.5816    -6836.675   -5106.2286 
   31200    301.24296   -6527.9954   -5316.0648   -7226.4464   -6387.8511 
   31250    304.53321   -6477.8582   -5252.6907   -6505.4875   -4189.0477 
   31300    305.33077   -6416.7943    -5188.418   -6193.2265    -3359.835 
   31350    307.14148   -6402.8825   -5167.2216   -6272.6877   -3696.4094 
   31400    305.03808   -6402.4061   -5175.2074   -6559.5099   -4628.7707 
   31450    308.56018    -6416.672   -5175.3035   -6237.9437     -3553.21 
   31500    304.04978   -6429.1106   -5205.8879   -6347.6872   -3817.8989 
   31550    310.29657   -6500.7057   -5252.3516   -6673.5177   -4752.0335 
   31600    303.57301   -6515.2527   -5293.9481    -6920.439   -5438.5898 
   31650    300.97109   -6533.9214   -5323.0846   -6938.3859   -5401.1742 
   31700     299.0986   -6535.3405   -5332.0369   -6753.0228    -4751.431 
   31750    298.44272    -6500.644   -5299.9791   -6875.7616   -5269.0332 
   31800    297.89022   -6427.5628   -5229.1206   -6447.6022    -4074.306 
   31850    315.01455   -6366.4677   -5099.1326   -5662.1286   -1882.5215 
   31900    312.75576   -6261.7834   -5003.5357   -5221.8326   -729.93177 
   31950    317.95316   -6267.2154    -4988.058   -5262.7748   -918.58616 
   32000    302.13531   -6242.3942   -5026.8736   -5329.1983      -1010.9 
   32050    298.72609   -6262.9307   -5061.1258   -5197.0017   -454.33588 
   32100    306.62904    -6330.975   -5097.3757   -5933.0948   -2794.4413 
   32150    304.28261   -6352.4156   -5128.2563   -5894.0069   -2560.4837 
   32200    308.59745   -6406.5724    -5165.054   -6335.3235   -3913.0965 
   32250    294.67358   -6372.2165   -5186.7152   -6235.2652    -3506.096 
   32300    299.21989   -6354.7921   -5151.0006   -5836.4808   -2292.0791 
   32350    317.18335   -6366.9993    -5090.939   -6077.2785   -3298.0794 
   32400    305.33172   -6277.3763   -5048.9963   -5306.8666   -862.25537 
   32450    317.04329   -6265.5453   -4990.0485   -5449.3961   -1535.9467 
   32500     315.1628    -6214.206   -4946.2745   -5079.7447   -446.29176 
   32550    307.77849   -6206.8829   -4968.6593   -4919.2622    165.17201 
   32600    305.10703   -6266.7882   -5039.3121   -5473.2957   -1451.1355 
   32650    299.58458   -6293.4175   -5088.1588   -5619.4033   -1776.3522 
   32700    307.92094   -6325.5094   -5086.7127   -5747.7302   -2210.2818 
   32750    294.50296   -6276.5797   -5091.7649   -5457.7644   -1223.8132 
   32800    304.05274   -6304.8931   -5081.6585   -5767.7709   -2294.1926 
   32850    302.38193   -6284.4964   -5067.9837   -5592.8427   -1755.0009 
   32900    305.02165   -6230.8186    -5003.686   -5358.2932   -1185.7202 
   32950    316.47952   -6186.1593   -4912.9305   -4941.6467   -96.020021 
   33000    307.87898   -6145.8326   -4907.2047   -4949.6859   -142.04674 
   33050    310.68177   -6217.7669   -4967.8631   -5601.7112   -2119.4338 
   33100    307.12922   -6269.6763   -5034.0648   -5618.4386   -1954.0037 
   33150      307.442   -6323.1429    -5086.273   -6046.8363   -3211.8899 
   33200    289.45561   -6253.2793   -5088.7704   -5703.9567   -2057.0331 
   33250    308.59321   -6255.4786   -5013.9773   -5281.5962   -894.85247 
   33300    312.23559   -6219.7018   -4963.5467   -5214.6884   -839.75647 
   33350    304.72347    -6188.126    -4962.193   -5108.9613   -490.75734 
   33400    311.47127    -6244.236    -4991.156   -5324.6956   -1115.2752 
   33450    312.34657   -6273.1302   -5016.5287   -5458.9146   -1479.2309 
   33500    307.79444   -6307.0638    -5068.776   -5817.0431   -2502.0232 
   33550    310.00142   -6384.4353   -5137.2686   -5860.7199   -2419.0453 
   33600    307.52484   -6428.2058   -5191.0027   -6496.1765   -4364.1836 
   33650    298.96452   -6448.9366   -5246.1725   -6364.8769   -3740.6753 
   33700    304.08918   -6500.3048   -5276.9236   -6624.3071   -4505.3225 
   33750    300.54542   -6496.7724   -5287.6481   -6575.1491   -4305.0897 
   33800    304.66076   -6518.7563   -5293.0756   -6865.3076   -5257.1615 
   33850    298.66923   -6507.5216   -5305.9455   -6686.0793   -4614.8316 
   33900    295.11057   -6457.4789   -5270.2196   -6336.2119   -3564.4189 
   33950    308.62114   -6432.5082   -5190.8945   -6142.4662   -3181.8239 
   34000    303.69177   -6358.1986   -5136.4162   -5852.4063   -2394.0965 
   34050     301.0744   -6322.0735   -5110.8211   -5819.1011    -2368.316 
   34100     307.9562   -6331.4324   -5092.4938   -6035.4676   -3153.0749 
   34150    308.45401   -6362.2853    -5121.344   -6110.2108   -3306.5302 
   34200    309.46957   -6396.4292   -5151.4022   -6596.2169   -4831.1088 
   34250    303.73691   -6410.7023   -5188.7384   -6485.6457   -4336.5424 
   34300     307.9556   -6435.4855   -5196.5494   -6666.2517    -4914.327 
   34350    301.63809   -6424.5097   -5210.9895    -6263.967   -3520.9003 
   34400    304.35908   -6449.8569   -5225.3899   -6557.5521   -4454.4262 
   34450    308.97916   -6503.4551   -5260.4011   -6631.2686   -4583.8475 
   34500    290.94216   -6473.1892   -5302.6998   -6426.5507   -3757.8837 
   34550    290.69251   -6452.5292   -5283.0442   -6491.7281    -4041.545 
   34600    312.92785   -6478.2242   -5219.2842    -6350.537   -3782.6341 
   34650    307.73631   -6401.2435   -5163.1895   -6113.1977   -3176.5962 
   34700    307.93544   -6368.9435   -5130.0885   -6256.2266   -3765.5318 
   34750     306.0902   -6365.4898   -5134.0583    -6194.549   -3546.0227 
   34800    312.27198   -6403.2814     -5146.98   -6361.5789   -4061.3231 
   34850    307.17503   -6418.1816   -5182.3858   -6286.2506   -3691.0554 
   34900    315.40919   -6453.4387    -5184.516   -6544.0769   -4546.0407 
   34950    303.74203    -6452.817   -5230.8324   -6394.8437   -3892.1705 
   35000    303.59008   -6515.4891   -5294.1159   -6821.4603   -5107.0681 
   35050     298.7749   -6549.1952   -5347.1939   -6303.6288   -3198.0857 
   35100    295.25071   -6542.4603   -5354.6372   -6809.7663   -4865.5975 
   35150    307.39597   -6540.2984   -5303.6137   -6635.8102   -4454.5409 
   35200    312.71566   -6541.6285   -5283.5421   -6440.1824   -3867.5238 
   35250    299.63925   -6523.3958   -5317.9171   -6695.8715   -4607.5439 
   35300     296.9499   -6540.1556   -5345.4965   -7066.9141   -5756.0016 
   35350    302.23958   -6553.6572   -5337.7171   -6686.8365   -4511.1269 
   35400    305.70601   -6520.2156   -5290.3297   -6466.7842   -3933.7777 
   35450    308.97408   -6493.4314   -5250.3978   -6486.0884   -4131.8488 
   35500    310.56278   -6499.9359   -5250.5107   -6536.9932   -4301.6842 
   35550    307.36891   -6526.5677   -5289.9918   -6791.8362   -5021.8022 
   35600     299.4368   -6552.3719   -5347.7077   -6677.0916   -4445.1361 
   35650    300.04562   -6567.9339   -5360.8204   -6575.7522   -4062.4365 
   35700    294.68363    -6509.897   -5324.3552   -6465.0011   -3814.0421 
   35750    306.77021   -6459.7066   -5225.5394   -6557.8207   -4454.8244 
   35800    312.89189   -6388.1637   -5129.3684   -6051.3846   -3082.9977 
   35850    308.34948   -6321.8219   -5081.3011   -5506.8396   -1422.8971 
   35900    316.04093   -6319.5948   -5048.1306   -5507.9456   -1537.5094 
   35950    298.36506   -6267.1822   -5066.8297   -5461.7782   -1320.6116 
   36000    307.74003   -6306.2672   -5068.1983   -5843.0625   -2590.9574 
   36050    305.51402   -6295.5188   -5066.4053   -5637.8987   -1910.9348 
   36100    305.57531   -6334.1278   -5104.7678   -6193.8418   -3641.5984 
   36150    303.90238   -6372.9972   -5150.3675   -6242.5222   -3651.8994 
   36200    298.09646    -6370.779   -5171.5072   -6162.3311    -3313.074 
   36250    310.33289   -6407.6278   -5159.1276   -6742.2766   -5293.6651 
   36300    301.49861   -6394.1854   -5181.2264   -6263.1886   -3617.8183 
   36350    290.84624   -6356.2681   -5186.1646   -5597.0796   -1373.9996 
   36400    296.66403   -6360.0609   -5166.5519   -5788.0239   -2078.0511 
   36450    294.46253    -6320.331   -5135.6788   -5764.9935   -2104.2753 
   36500    311.43874    -6322.175   -5069.2258   -5484.2546   -1387.7553 
   36550    314.11988   -6323.1585   -5059.4228   -5445.3869   -1290.5701 
   36600    294.16835   -6283.9645   -5100.4958   -5522.8566   -1412.2714 
   36650    316.08134   -6379.4068   -5107.7799   -6060.3432   -3185.1398 
   36700    306.36537   -6367.7134   -5135.1749   -6002.1084   -2898.8149 
   36750    310.93337   -6422.2035   -5171.2875   -6490.1616   -4409.9939 
   36800    300.95347   -6456.4506   -5245.6847   -6765.5954   -5082.2113 
   36850    296.68403   -6482.7977   -5289.2081   -6651.0242   -4553.5817 
   36900    306.23381   -6506.5165   -5274.5072   -6803.5308   -5112.6826 
   36950    301.16642   -6455.4621   -5243.8395   -6369.1161   -3762.6511 
   37000    303.31654   -6412.7178   -5192.4451   -6392.1398   -4011.4872 
   37050    315.03543   -6425.8028   -5158.3837    -5884.635   -2428.4075 
   37100    301.57834   -6426.1549   -5212.8751   -6298.3355   -3629.5156 
   37150    313.76075   -6516.8463   -5254.5554   -6779.1271    -5097.797 
   37200    299.48135   -6499.1019   -5294.2584   -6426.7145   -3786.6575 
   37250    300.56802   -6527.8968   -5318.6816   -6974.8498   -5537.8235 
   37300    299.82771   -6543.1863   -5336.9495   -6621.1096   -4293.9188 
   37350    296.03712   -6522.5724   -5331.5855   -6654.0733   -4422.0775 
   37400     305.5344   -6539.4805   -5310.2851   -6548.8939   -4141.6065 
   37450    317.57351   -6573.4943   -5295.8643   -6439.5428   -3824.1825 
   37500    291.24662   -6501.6555   -5329.9412   -6510.9974   -3949.1646 
   37550    293.92526    -6512.006   -5329.5153   -6309.9918   -3278.4747 
   37600    308.70224   -6552.0638   -5310.1239   -6847.3095   -5139.9747 
   37650    295.17858   -6504.1936   -5316.6607   -6311.7393   -3327.3007 
   37700    314.95765   -6507.8691    -5240.763   -6654.4919   -4727.1654 
   37750    318.58804   -6469.9528   -5188.2413   -6168.4797   -3277.6785 
   37800    299.84241   -6404.8317   -5198.5358   -6093.5119   -2992.5823 
   37850    300.20652   -6415.8604   -5208.0996   -6134.2892   -3096.9526 
   37900    313.42317    -6447.171   -5186.2383   -6524.3373   -4474.2775 
   37950    298.11653   -6383.2657   -5183.9131   -5944.4457   -2543.0359 
   38000    302.72133   -6380.0573   -5162.1791   -5831.3025   -2237.3858 
   38050    302.56895   -6343.6708   -5126.4057   -6007.3748   -2945.7465 
   38100    308.47604   -6304.8957   -5063.8657   -5354.4745   -971.72498 
   38150    294.15079   -6208.9839   -5025.5859   -5231.7221   -689.26941 
   38200    311.16343   -6215.0102   -4963.1686   -5055.6289   -309.16482 
   38250    306.16254   -6184.8085    -4953.086   -4785.0169    561.98207 
   38300    304.33544   -6193.7763   -4969.4044   -5132.0335   -543.79206 
   38350     305.9791   -6225.3023   -4994.3177   -5672.7098   -2268.3779 
   38400    297.16452    -6185.536   -4990.0134   -5247.3221   -860.37767 
   38450    317.83084   -6237.2701   -4958.6048   -5515.5927   -1862.4319 
   38500    306.60444   -6206.0002   -4972.4999   -5223.0633   -837.82323 
   38550    303.92886   -6228.2788   -5005.5426   -5572.9958   -1897.4253 
   38600    302.91698   -6234.4198   -5015.7546   -5552.3233   -1794.1553 
   38650    314.34587   -6253.6266   -4988.9817   -5571.1193   -1946.5263 
   38700    306.77758   -6243.8563   -5009.6595   -5575.0909    -1890.665 
   38750    303.82349   -6296.9135   -5074.6013   -5634.2347   -1871.2779 
   38800    310.40037   -6387.1571   -5138.3854   -5941.3379   -2684.8775 
   38850     300.9255   -6398.4981   -5187.8447   -6425.2543   -4137.5966 
   38900    304.32026   -6431.7281   -5207.4172   -6695.0824   -4974.3903 
   38950    301.61715   -6435.7352   -5222.2993   -6479.5759    -4204.027 
   39000    298.81261   -6435.0852   -5232.9322   -6498.0115   -4230.1172 
   39050    316.18094   -6497.2227   -5225.1952   -6551.8855   -4436.1294 
   39100     300.1183   -6482.0207   -5274.6147   -6494.4886   -4078.9615 
   39150    290.18344   -6485.0113   -5317.5743   -6686.7165   -4578.0781 
   39200    305.62794    -6540.936   -5311.3642   -6816.7821   -5033.7511 
   39250    305.09374   -6513.4847   -5286.0621   -6731.8902   -4834.4972 
   39300     322.3547    -6517.872   -5221.0069   -6525.9296   -4363.3442 
   39350    309.25208   -6453.5273   -5209.3753   -6450.7191   -4150.7517 
   39400    300.19218   -6438.6531   -5230.9499   -6356.5069   -3763.5886 
   39450    305.24976   -6462.0602   -5234.0099   -6537.7326   -4359.3315 
   39500    311.15531   -6478.9342   -5227.1253   -7079.3691   -6193.4528 
   39550    285.73856   -6378.4308    -5228.876   -6038.8097   -2708.2212 
   39600    305.30752   -6373.7353   -5145.4526   -5781.1467   -2125.6064 
   39650     309.5436   -6311.7208    -5066.396    -5225.528   -532.09877 
   39700     307.4936   -6266.8694    -5029.792   -5312.8356    -946.4289 
   39750    308.51697   -6256.9925   -5015.7978   -5378.6334   -1213.2338 
   39800    304.04115   -6256.8851   -5033.6972   -5522.2722   -1633.6759 
   39850    300.72818   -6247.6305   -5037.7709   -5375.8587   -1130.4832 
   39900    299.52592   -6195.1484   -4990.1256   -5043.4653   -178.35483 
   39950    312.33579   -6187.8025   -4931.2444   -4799.1277    441.76627 
   40000    309.17077    -6174.177    -4930.352   -5165.0083   -784.63344 
   40050    303.29972   -6176.3637   -4956.1586   -5113.2922   -525.41659 
   40100    302.00075   -6191.4752    -4976.496   -5536.0439   -1870.9923 
   40150    306.94312   -6206.8709    -4972.008   -5605.2984   -2117.5689 
   40200     304.3318   -6195.2581   -4970.9008   -5275.0174   -1016.8918 
   40250    311.32856   -6264.8308   -5012.3249   -5494.4447   -1612.0915 
   40300    299.95086   -6283.9526   -5077.2203   -5832.4369   -2525.2605 
   40350    294.03337   -6307.4799   -5124.5542   -5814.3889   -2306.6393 
   40400    303.26385   -6324.1712   -5104.1105   -5640.5647   -1793.7725 
   40450    306.71119   -6285.3301   -5051.4003   -5833.4992   -2615.1482 
   40500    298.62953   -6194.7448   -4993.3284   -5249.5748   -856.82591 
   40550    304.25105   -6152.7018   -4928.6694   -5226.0357   -994.32049 
   40600    319.90199   -6160.9686   -4873.9709   -5381.5847   -1697.3368 
   40650    310.77824   -6148.9908   -4898.6989   -5075.7619    -592.0557 
   40700    309.95339   -6234.3234   -4987.3499   -5540.9817   -1851.2098 
   40750    302.98309   -6312.8808   -5093.9495   -5904.3159   -2709.6679 
   40800    294.71689   -6341.4812   -5155.8057   -6079.2477   -3087.7654 
   40850     293.3462   -6341.3638   -5161.2026    -6134.338   -3253.9277 
   40900    302.27241   -6330.8727   -5114.8006   -5821.5068   -2363.0536 
   40950    301.15373     -6267.83   -5056.2584   -5460.3836   -1351.2962 
   41000    311.55167   -6234.7728   -4981.3693   -5516.8893   -1790.6487 
   41050    306.36037   -6182.1188   -4949.6004   -5140.3035   -637.66476 
   41100    301.66656   -6138.7991   -4925.1644   -5417.7822   -1647.1943 
   41150    311.80864   -6155.5453    -4901.108    -5000.722   -333.08499 
   41200    318.46326   -6209.1717   -4927.9621   -5701.3183   -2585.9149 
   41250    303.42817   -6255.2793   -5034.5575   -5713.1092   -2268.9117 
   41300    293.93032    -6286.197   -5103.6859   -5775.4414   -2246.1869 
   41350    304.04519   -6311.1508   -5087.9466   -6073.6279   -3295.8782 
   41400    308.54662    -6283.964   -5042.6501    -5423.271   -1272.7038 
   41450    308.30782   -6261.0849   -5020.7317   -5335.8725    -1053.754 
   41500    300.13281   -6246.8771   -5039.4128   -5693.7881   -2188.0715 
   41550    309.72782    -6289.019    -5042.953   -5762.9944   -2407.6435 
   41600    313.85594   -6311.0733   -5048.3995     -5702.68   -2187.7547 
   41650    305.32899   -6314.9276   -5086.5586   -5825.9191   -2472.2418 
   41700    296.81396   -6338.0459   -5143.9336   -6046.9415   -3019.4386 
   41750    301.14256   -6384.1406   -5172.6139   -6027.1058   -2857.2128 
   41800    302.02444   -6389.6044   -5174.5298   -5947.6289   -2585.0552 
   41850     295.8839   -6372.5462   -5182.1757   -6256.4246    -3592.027 
   41900    304.67916   -6383.7679   -5158.0132   -6010.4352   -2850.2916 
   41950    313.51233   -6351.9119   -5090.6204    -5933.082   -2816.9864 
   42000    306.76885   -6297.4495   -5063.2878   -5793.7727    -2442.564 
   42050    303.99227   -6300.1841   -5077.1928   -5843.4625   -2562.2194 
   42100    313.04122   -6360.2728   -5100.8767   -6164.3038   -3555.8415 
   42150    311.71632   -6397.5367   -5143.4707   -6458.0229   -4395.5426 
   42200    303.07296   -6424.7749    -5205.482   -6284.4083   -3607.6667 
   42250     298.8449     -6426.18   -5223.8971   -6511.1897   -4304.3931 
   42300    304.40377   -6400.6605   -5176.0138   -6193.4036    -3401.904 
   42350     315.6537   -6413.5332   -5143.6268   -6422.4844   -4276.1883 
   42400    302.33629   -6361.0608   -5144.7316   -6092.4277    -3168.865 
   42450    311.32589   -6402.5131    -5150.018   -6344.3676   -3993.6146 
   42500    299.75678   -6381.6964    -5175.745   -6021.1522   -2826.8362 
   42550    320.65294   -6454.4178    -5164.399   -6490.5989   -4434.4897 
   42600    307.80742   -6455.3339   -5216.9939   -6585.9829   -4577.5661 
   42650    301.15129   -6487.2616   -5275.6999   -6815.7529   -5149.5625 
   42700    297.13004   -6513.1362   -5317.7524   -6706.5656   -4643.8535 
   42750    288.83964   -6480.3521   -5318.3214   -7014.4621   -5671.4819 
   42800    313.38978   -6493.4458   -5232.6474   -6613.0923   -4615.8719 
   42850    325.86678   -6477.3007    -5166.306   -6926.5336   -5885.7727 
   42900    295.13726   -6364.1038   -5176.7371   -5903.8235   -2431.1999 
   42950    301.32745   -6355.2753   -5143.0049   -5903.9123   -2544.2891 
   43000    311.08953   -6326.5254   -5074.9811   -5618.8794   -1818.6634 
   43050    308.01951   -6283.0957   -5043.9024   -5489.3342   -1489.4155 
   43100    303.86671   -6239.1501   -5016.6639   -5314.2515   -995.06055 
   43150    309.83833   -6230.3381   -4983.8275    -5088.635   -350.45066 
   43200    308.55704   -6212.9129   -4971.5571   -5145.9772    -583.2184 
   43250    301.46493   -6204.2542   -4991.4307   -5251.8029    -870.6212 
   43300    301.29832   -6219.1402    -5006.987   -5378.4878   -1242.2082 
   43350    307.00906   -6251.3719   -5016.2437   -5622.2334   -2026.2819 
   43400    294.15999    -6210.715     -5027.28   -5136.5373   -365.33003 
   43450    313.10825   -6249.5267   -4989.8609   -5515.1193   -1756.3364 
   43500    309.82526   -6245.7693   -4999.3113   -5460.6552   -1542.6217 
   43550    302.34351   -6255.6393   -5039.2811   -5445.6988   -1358.9619 
   43600    307.86982   -6341.9991    -5103.408   -5907.2166   -2687.7403 
   43650    296.05582   -6359.8617   -5168.7996    -5915.533    -2496.895 
   43700    315.96149   -6457.0133   -5185.8687   -6728.8674   -5159.4122 
   43750    310.73255   -6452.5435   -5202.4354   -6536.3214   -4460.1903 
   43800    307.28393   -6492.2979   -5256.0639   -6727.4888   -4920.0869 
   43850    308.83359   -6533.9382   -5291.4698   -6958.4545   -5573.9912 
   43900    298.98188   -6518.3609   -5315.5269   -6664.2922   -4509.9429 
   43950    307.57698   -6542.6861   -5305.2731   -6798.7684   -4993.8849 
   44000    319.16614   -6571.5616   -5287.5244   -6723.8981   -4802.8842 
   44050      307.502   -6571.7503    -5334.639   -6823.0418   -4976.8568 
   44100    292.42355   -6571.4155   -5394.9664   -7128.5498    -5796.681 
   44150    299.32776   -6578.4174   -5374.1919   -6764.0715   -4647.4194 
   44200    306.94085   -6545.8125   -5310.9587   -6998.8812    -5644.002 
   44250    310.93221   -6512.6608   -5261.7494   -6182.1636    -3077.641 
   44300    293.45441   -6478.6602   -5298.0638   -6723.8495   -4767.4806 
   44350    299.60066   -6512.3118   -5306.9884   -6589.9299   -4289.8442 
   44400    317.61493   -6529.5242   -5251.7276   -6910.1729   -5545.4378 
   44450    309.19201   -6482.8683   -5238.9579    -6383.359   -3826.5985 
   44500    308.59946   -6489.8125    -5248.286   -6423.2509   -3928.7965 
   44550    309.80922   -6496.7764   -5250.3829   -6490.5911   -4146.9543 
   44600    303.18794   -6512.3912   -5292.6358   -6698.7943   -4701.8519 
   44650    304.08369   -6574.5817   -5351.2227   -7107.9703   -5874.1367 
   44700    295.35385   -6585.6999   -5397.4618   -6628.6683    -4116.855 
   44750    301.24607   -6586.4646   -5374.5216   -6743.8501   -4578.7013 
   44800     307.3469   -6556.3558   -5319.8685   -6907.2012   -5307.6544 
   44850     305.2996   -6518.0024   -5289.7516   -6738.6269   -4844.6864 
   44900     313.2298   -6530.6281   -5270.4733   -6920.1423   -5516.0919 
   44950    310.99057   -6519.2103   -5268.0642   -6805.6385   -5141.2746 
   45000    313.00855   -6541.8329   -5282.5682   -6959.7029   -5607.9303 
   45050    314.23525   -6582.9672   -5318.7674   -6951.8105    -5460.499 
   45100    304.41906   -6577.9254   -5353.2171   -7165.5684   -6060.0617 
   45150    301.95094   -6582.8327   -5368.0538   -6881.9312   -5062.0375 
   45200    301.67319   -6573.1223   -5359.4609   -6936.0835   -5271.8424 
   45250       301.02   -6544.5496    -5333.516   -6694.2176    -4549.855 
   45300    310.31745   -6568.9941    -5320.556   -6746.4335   -4767.7873 
   45350    309.11613   -6578.1386   -5334.5335   -6957.0162   -5425.1874 
   45400    306.53399    -6608.339   -5375.1221   -6306.7746   -3115.2192 
   45450    296.35548   -6593.5499   -5401.2821   -7047.2515   -5503.7208 
   45500    304.24573   -6592.9421   -5368.9311   -6779.9943   -4718.2519 
   45550    302.93787   -6526.2908   -5307.5415   -7061.6178   -5865.2045 
   45600    303.68943   -6446.3943   -5224.6214   -6448.5669    -4092.576 
   45650    315.20485     -6397.27   -5129.1694   -6224.5706    -3662.755 
   45700    318.84086   -6394.4073   -5111.6787   -6302.0682    -3980.373 
   45750    296.52771   -6355.0299   -5162.0693   -6108.1066   -3163.3186 
   45800    290.99326   -6317.1042   -5146.4092   -5305.7232   -532.70743 
   45850    308.81974   -6306.5099   -5064.0972   -5429.5128   -1221.8609 
   45900    315.30429   -6289.6202   -5021.1195   -5606.7315   -1958.1439 
   45950    304.90271    -6275.546   -5048.8919   -5391.6131   -1145.9763 
   46000    310.43215   -6361.4711   -5112.5716   -6012.7363    -3009.932 
   46050    308.18983   -6435.4404   -5195.5619    -6582.843   -4638.7306 
   46100    296.60372   -6457.3639   -5264.0975   -6762.0014   -5008.6261 
   46150    289.31623   -6450.5719   -5286.6237   -6477.0148    -3980.378 
   46200    312.30207   -6494.2665   -5237.8441   -6824.7248   -5306.1429 
   46250    313.47758   -6434.6731   -5173.5214   -5995.7665   -2749.3873 
   46300    314.05283   -6426.8203   -5163.3544   -6544.7572   -4619.0748 
   46350    305.86503   -6415.1295   -5184.6039   -6448.5701   -4226.3952 
   46400     305.2289   -6457.6826   -5229.7162   -6584.2308    -4529.167 
   46450    289.30575    -6446.872   -5282.9661   -6219.8234   -3132.6227 
   46500    300.45779   -6467.1814   -5258.4097   -6577.6504     -4411.22 
   46550     317.2737   -6481.3687   -5204.9448   -6784.2689   -5280.8754 
   46600    306.76313   -6418.4417   -5184.3029   -5901.5946   -2398.4488 
   46650    316.46027   -6429.7624   -5156.6112    -6281.454   -3761.2009 
   46700    322.96631   -6478.4251   -5179.0993   -6831.7344   -5526.0095 
   46750    298.19635   -6461.0387   -5261.3649   -6504.8813    -4158.016 
   46800     294.4015   -6502.5928   -5318.1862   -6729.6779    -4719.685 
   46850    307.09715   -6562.4588   -5326.9762   -6905.1308   -5276.9649 
   46900    292.26078   -6514.0859   -5338.2915    -6630.773   -4321.7434 
   46950      307.237   -6535.7198   -5299.6746   -6710.2822   -4716.7287 
   47000    306.61589   -6506.2253    -5272.679   -6604.0755   -4451.8659 
   47050    317.05786   -6518.5685    -5243.013   -6703.9184   -4884.9119 
   47100    300.41178   -6470.4695   -5261.8828   -6559.6995   -4339.5832 
   47150    294.25569   -6501.5231    -5317.703   -6410.0942   -3652.6904 
   47200    309.35702   -6598.6728   -5354.0986   -7077.8958   -5763.9583 
   47250    297.77276   -6598.4346    -5400.465   -7035.1744   -5466.0703 
   47300    298.82664   -6594.6511   -5392.4416     -6923.83     -5120.59 
   47350    307.70556   -6578.5972    -5340.667   -6871.2982   -5118.0582 
   47400    303.90967   -6517.0622   -5294.4032    -6514.347   -4079.1952 
   47450    317.14554   -6557.5798   -5281.6716   -6963.2024   -5622.6298 
   47500    306.24788   -6553.3849   -5321.3191   -6787.2548   -4901.7323 
   47550    300.89028   -6557.8143   -5347.3026   -7072.7438   -5769.4554 
   47600    314.31048   -6591.8431   -5327.3406   -7076.1527   -5847.6019 
   47650     308.4307   -6575.6422   -5334.7947   -7060.3954   -5769.9888 
   47700    313.54588   -6599.2268   -5337.8004   -6930.6583   -5326.1293 
   47750    294.24018   -6560.1547   -5376.3971   -7033.2009   -5539.9488 
   47800    307.83391   -6595.6955   -5357.2489   -7167.5815   -6053.3117 
   47850    301.52635   -6547.8755   -5334.8049   -6888.4749   -5195.0945 
   47900    299.12792    -6478.181   -5274.7595   -6768.0297    -4993.132 
   47950    314.98049   -6445.2253   -5178.0273    -5956.239   -2602.1507 
   48000    298.75708    -6338.791   -5136.8614   -5580.1516   -1482.2546 
   48050    301.52194    -6322.686   -5109.6331   -5706.4212   -1995.5143 
   48100    319.86356   -6356.2916   -5069.4485   -5483.5318   -1384.5938 
   48150    300.52242   -6278.6925   -5069.6608   -5538.8688   -1568.9174 
   48200    307.25935   -6298.2699   -5062.1348   -5569.6821   -1697.1145 
   48250    303.32486   -6272.1323   -5051.8261   -5392.4764   -1139.0517 
   48300    308.97698   -6292.8042    -5049.759   -5432.4019    -1279.465 
   48350    303.67395   -6317.2463   -5095.5356   -5998.6804   -3019.8964 
   48400    296.71753   -6328.6966   -5134.9723   -5845.5179   -2375.8917 
   48450    293.01189   -6282.1683   -5103.3522   -5327.7117   -750.20358 
   48500    309.06671   -6247.8945   -5004.4882   -5604.1055   -2004.9742 
   48550    311.30275   -6138.7921     -4886.39   -4919.4962   -110.69907 
   48600    318.81011   -6125.4939    -4842.889   -5012.6899   -567.77301 
   48650    311.32543   -6173.3422   -4920.8489   -5574.0787   -2184.2416 
   48700    295.26594   -6216.8407   -5028.9563   -5509.7845   -1607.7727 
   48750    288.66488   -6265.8036    -5104.476    -5522.831   -1398.8773 
   48800    305.32326    -6320.363    -5092.017   -5644.6271   -1847.7938 
   48850    306.99702   -6285.8092   -5050.7295   -5141.9227   -304.92786 
   48900     316.0088   -6336.5653   -5065.2303   -6146.0598    -3614.031 
   48950    299.64622    -6321.377   -5115.8703   -5614.1511   -1666.1299 
   49000    297.58958   -6348.8438   -5151.6112   -6074.8899   -3087.2194 
   49050    300.65307   -6386.9005   -5177.3432   -6088.0542   -3045.1959 
   49100    310.79145   -6412.9926   -5162.6476   -6000.0063   -2799.9238 
   49150    300.48331    -6357.548   -5148.6736   -5791.2453   -2148.6033 
   49200    304.67168   -6345.1744   -5119.4498   -6032.5854   -3053.3033 
   49250    304.53486   -6318.0271   -5092.8529   -5580.5718   -1630.8132 
   49300     299.0509   -6285.3346   -5082.2229   -5414.6343   -1111.5027 
   49350    293.77034   -6240.0114   -5058.1439   -5226.8682   -564.17282 
   49400    315.14379   -6276.5101   -5008.6552   -5340.4555   -1109.4596 
   49450    317.74433   -6254.9793   -4976.6621   -5347.6501   -1240.4934 
   49500    307.36809   -6240.8908   -5004.3182    -5415.464   -1374.7715 
   49550    300.36619   -6239.3249   -5030.9216   -5498.5992   -1563.7999 
   49600    320.76851   -6325.3087   -5034.8249   -5888.5342    -2854.596 
   49650    305.24431   -6306.9421   -5078.9138   -5836.9396   -2534.6541 
   49700    303.95651   -6382.0106   -5159.1632   -6564.9794   -4700.7072 
   49750    294.39654   -6411.7269   -5227.3402   -6028.8037   -2679.8989 
   49800    296.75426   -6450.0748   -5256.2027   -6318.7313   -3552.8371 
   49850    298.66572   -6414.0761   -5212.5141   -6163.2769   -3179.1196 
   49900    320.11287   -6392.3369   -5104.4908   -6109.3561   -3360.0252 
   49950     315.8936   -6329.9595   -5059.0879   -5705.3402   -2160.9103 
  STMD DIG: istep=50000  TSC1=50000 Tlow=0.900282
   50000    313.22017   -6355.8922   -5095.7761   -5715.1319   -2070.9751 
   50050    303.70129   -6417.9681   -5196.1475   -6360.4248     -3893.06 
   50100    297.80489   -6474.9172   -5276.8184   -6437.7035   -3881.7172 
   50150    294.31391   -6497.0189   -5312.9647   -6486.8251   -3925.1038 
   50200    303.36435   -6512.7744   -5292.3093   -6691.2362   -4677.6712 
   50250    306.04731   -6465.9503   -5234.6914   -6477.5704   -4155.8849 
   50300     319.3876   -6450.9614   -5166.0331   -6317.2319   -3849.3286 
   50350     323.9165   -6465.8161   -5162.6677   -6486.1468   -4425.3922 
   50400    309.79976   -6494.5068   -5248.1515   -6568.7256   -4415.6785 
   50450    294.80955   -6507.9206   -5321.8723   -6689.6326   -4573.4577 
   50500    298.76695   -6510.3057   -5308.3364   -6538.7275   -4114.1283 
   50550    312.13834   -6524.7994   -5269.0356   -6626.9298   -4540.4676 
   50600    304.82464   -6468.2756   -5241.9356   -6434.2299   -3986.7419 
   50650    303.25333   -6407.3117   -5187.2933   -5939.2994   -2514.5256 
   50700    309.12634   -6364.7166   -5121.0705   -5848.2752   -2431.5958 
   50750    304.08135   -6288.7894   -5065.4397   -5659.3728   -1985.9677 
[...]
  987600    302.55193   -6316.7246    -5099.528    -5730.944   -2111.3015 
  987650     319.7439   -6338.3001   -5051.9385   -5718.5326   -2228.9285 
  987700    308.66086   -6295.3012   -5053.5277   -5536.2954    -1614.258 
  987750    299.88264   -6278.1395   -5071.6816   -5441.9141   -1237.9673 
  987800    305.20766   -6328.6868   -5100.8059   -6042.3875   -3148.4199 
  987850    301.66409   -6287.7418    -5074.117   -6043.2248   -3240.4606 
  987900     299.7508   -6219.8018   -5013.8744   -5169.3949   -520.02291 
  987950    309.91297   -6242.4159   -4995.6051   -5455.7326   -1538.5545 
  988000    299.11451   -6243.9401   -5040.5725   -5387.6962   -1160.6973 
  988050    306.82505   -6333.3786   -5098.9907   -5581.6836   -1614.0074 
  988100     300.1575   -6346.2131   -5138.6494   -6210.2179   -3583.0641 
  988150    301.62411   -6358.3004   -5144.8365   -6059.5417   -3058.5516 
  988200    311.96996   -6395.2182   -5140.1319   -6193.6396   -3522.6732 
  988250    308.08057   -6402.7085   -5163.2696   -6190.7046   -3435.4928 
  988300    307.69818   -6446.6835   -5208.7829   -6641.1755    -4789.572 
  988350     302.9906   -6480.7427   -5261.7813   -7049.7141   -5978.4122 
  988400    296.77976    -6497.682   -5303.7073   -6838.8531   -5133.1538 
  988450    299.16995   -6498.6785   -5295.0878   -6850.2921   -5200.2246 
  988500    311.71785   -6512.2361    -5258.164    -6586.795   -4442.6189 
  988550    309.21942   -6498.6434   -5254.6228   -6741.0306   -4970.1861 
  988600    301.97278   -6491.9149   -5277.0482    -6714.464   -4806.3686 
  988650    301.45903   -6509.9813   -5297.1815   -6787.2467   -4982.4156 
  988700    301.74853   -6509.3424   -5295.3779   -6982.6458   -5641.8135 
  988750    302.10604   -6507.6862   -5292.2834   -6906.5994   -5397.8797 
  988800    298.94218   -6475.2707   -5272.5964    -6878.328   -5369.1756 
  988850    313.32766   -6504.0382   -5243.4897   -6624.0685   -4616.3197 
  988900    311.51817   -6524.7866   -5271.5179   -6910.2151   -5479.4049 
  988950    297.52824    -6530.058   -5333.0722   -7104.9952   -5924.8795 
  989000    297.19377   -6549.1866   -5353.5464   -6919.2915   -5235.4705 
  989050    301.93983   -6545.6023   -5330.8682   -6830.2899   -5013.7015 
  989100    309.84429   -6524.9128   -5278.3783   -6965.0289   -5639.7492 
  989150     308.3248   -6457.8942   -5217.4727   -6403.7247   -3966.5379 
  989200    303.27107   -6382.6123   -5162.5224   -5880.6446   -2401.2259 
  989250    300.74909    -6362.544   -5152.6003   -5831.7679   -2270.9711 
  989300    300.88648   -6352.5199   -5142.0235   -5814.9663   -2250.1567 
  989350    295.84983   -6327.9623   -5137.7289   -5798.4895   -2209.4227 
  989400    315.38335   -6383.3467    -5114.528   -6039.0865   -3091.4985 
  989450    312.84868   -6393.6175   -5134.9959   -6134.9869   -3343.7263 
  989500     312.4246   -6422.2094    -5165.294   -6242.6493   -3602.4138 
  989550    300.05314   -6402.4009   -5195.2572   -6547.7115   -4522.2781 
  989600    304.74089   -6432.6915   -5206.6884   -6412.3803   -4031.5401 
  989650    311.51818   -6486.4241   -5233.1553    -6713.267   -4949.1334 
  989700    301.95362   -6474.1325   -5259.3429   -6652.8998    -4659.715 
  989750     295.0693   -6473.4349   -5286.3416   -6467.2034   -3948.5146 
  989800    293.79795    -6468.837   -5286.8585   -6607.3014   -4415.2397 
  989850    313.01016   -6526.1486   -5266.8775   -6804.5643   -5141.6506 
  989900    297.28549   -6489.3586   -5293.3494   -6425.5715   -3785.8751 
  989950    313.36854   -6544.4976   -5283.7846   -6780.5729   -5004.8957 
  990000      297.871   -6527.5192   -5329.1543   -6795.9602   -4904.6419 
  990050    293.58663   -6533.2135   -5352.0851   -7388.3104   -6808.6418 
  990100    304.68886   -6550.4785   -5324.6847   -6746.9738   -4755.7886 
  990150    311.55234   -6580.8817   -5327.4755   -7290.4912   -6563.8469 
  990200     305.0489   -6572.7909   -5345.5487   -7355.0271   -6719.2067 
  990250    297.71168   -6530.8636   -5333.1397   -7046.9869    -5730.688 
  990300    298.15704   -6520.0926    -5320.577   -6767.6503   -4838.6609 
  990350    308.85361   -6550.3247   -5307.7757    -6965.828   -5544.1233 
  990400    303.74157   -6534.1956   -5312.2129   -6699.5685   -4638.9795 
  990450    300.83911   -6518.3093   -5308.0035    -6582.635   -4262.0575 
  990500    296.43977   -6477.2723   -5284.6655   -6493.4618   -4041.9207 
  990550    309.81156     -6467.33   -5220.9271   -6405.4873    -3960.881 
  990600    319.35306   -6456.4964   -5171.7071   -6099.7862   -3103.2709 
  990650    305.42001   -6458.7811   -5230.0459   -6490.4902    -4214.619 
  990700     309.0092   -6550.3437   -5307.1688   -7152.3367   -6169.7922 
  990750     294.8713   -6569.5058   -5383.2091   -7050.4395   -5574.8126 
  990800    291.98379   -6595.2027   -5420.5227   -7064.8335    -5498.175 
  990850    312.88259   -6662.1827   -5403.4248   -7409.7467   -6708.6523 
  990900    295.98399   -6606.9158   -5416.1427   -6894.0682   -4941.8235 
  990950     311.9866   -6653.6017   -5398.4484   -7426.2868    -6780.598 
  991000    313.17523   -6688.8278   -5428.8926   -7587.7417   -7218.6661 
  991050    300.24226   -6694.3004   -5486.3958   -7748.4239   -7563.6714 
  991100    301.43332   -6711.8739   -5499.1776   -7793.0699   -7670.2176 
  991150    310.59516   -6715.9644   -5466.4091   -7675.0294    -7385.089 
  991200    308.53734   -6676.6564   -5435.3798   -7573.0665    -7147.904 
  991250    306.93074   -6668.6423   -5433.8293    -7382.051   -6514.3792 
  991300    304.74726   -6675.5847    -5449.556   -7560.6169   -7058.8738 
  991350    294.48821   -6647.8326   -5463.0771   -7451.7956   -6649.7907 
  991400    305.13466   -6669.9957   -5442.4084   -7237.7543   -6003.1996 
  991450    313.76685    -6725.949   -5463.6336   -7774.8914   -7728.2838 
  991500    307.42742   -6746.2676   -5509.4563    -7756.222   -7512.6375 
  991550    303.69675   -6745.5669   -5523.7645     -7531.06   -6711.9077 
  991600    298.35423   -6731.2753   -5530.9664   -7663.6954   -7131.3266 
  991650    308.48419   -6743.1434   -5502.0806   -7820.5168   -7752.2864 
  991700    310.59504   -6721.9014   -5472.3465   -7604.0106   -7127.7657 
  991750    307.17114   -6705.4738   -5469.6936   -7542.6329   -6931.4047 
  991800     300.3804   -6718.3898   -5509.9294   -7498.6054   -6649.6489 
  991850    311.66894   -6777.8406   -5523.9653   -8088.2391   -8574.3077 
  991900    296.66282   -6781.1304   -5587.6262   -7807.4962   -7422.7049 
  991950    288.75183   -6806.5452   -5644.8677   -7879.3053   -7471.4156 
  992000    307.13721   -6868.6747    -5633.031   -8520.8652   -9656.2148 
  992050      305.788   -6842.8969   -5612.6812     -8051.49   -8154.7834 
  992100    298.47029    -6792.435   -5591.6592   -7878.4856   -7646.5912 
  992150    309.83003    -6791.193   -5544.7158   -8055.8114   -8396.4924 
  992200    308.21965   -6766.7048   -5526.7063   -8266.7448   -9162.0218 
  992250    308.09669   -6766.5564   -5527.0526   -8088.8607   -8566.0627 
  992300    316.88771   -6817.0792   -5542.2082   -7606.1732   -6901.3967 
  992350    308.71371   -6864.5169   -5622.5308   -8231.0997   -8722.4197 
  992400     298.3407   -6915.0468   -5714.7924   -8480.2272    -9246.941 
  992450    297.28664   -6942.5125   -5746.4986    -8525.567   -9292.5286 
  992500    304.32694   -6932.6767    -5708.339   -8295.0846    -8649.448 
  992550    303.16103   -6890.6387   -5670.9916   -8354.9827   -8974.6132 
  992600    308.16037   -6861.7166   -5621.9566   -8226.0307   -8707.3899 
  992650    305.53101   -6820.9472   -5591.7654   -7904.3171     -7732.61 
  992700    314.29802   -6799.3827   -5534.9303     -8109.91   -8610.1054 
  992750     317.2772   -6797.0471   -5520.6092   -7945.7152   -8108.9643 
  992800    295.32717    -6785.905   -5597.7743   -8089.0327    -8330.162 
  992850     296.1447   -6827.3982   -5635.9785   -8020.4601   -7973.1262 
  992900    307.44895   -6855.5553   -5618.6574   -8421.6161   -9372.4117 
  992950    315.08451   -6857.5582   -5589.9417   -8306.9645    -9085.063 
  993000    305.13311   -6834.9231   -5607.3421   -8059.2261   -8198.5033 
  993050    296.90456   -6824.6342   -5630.1575   -7963.5623    -7802.338 
  993100    298.12542   -6798.5802   -5599.1918   -8186.3267   -8650.7493 
  993150    311.05016   -6760.4023   -5509.0164   -7889.5038   -7959.7705 
  993200     319.0312    -6728.401   -5444.9066   -7383.6613    -6482.724 
  993250    304.38819    -6692.645   -5468.0609   -7480.5726   -6729.3497 
  993300    299.76413   -6689.2177   -5483.2366   -7603.2493   -7088.8067 
  993350    302.88972   -6708.7001   -5490.1445   -7538.6887   -6849.8333 
  993400    306.97498   -6738.1128   -5503.1218   -7816.6719   -7735.9486 
  993450    298.13143   -6740.3851   -5540.9725   -7630.1517   -6985.7068 
  993500    311.81333   -6808.8181   -5554.3619   -7924.5323    -7925.273 
  993550    309.51424   -6829.9264   -5584.7196   -8171.0601   -8648.0931 
  993600    311.26219   -6849.7919    -5597.553    -8209.906   -8735.0729 
  993650    302.11928   -6859.4028   -5643.9468   -8411.4817   -9253.9633 
  993700     298.7368   -6883.2143   -5681.3663   -8487.5082   -9383.0556 
  993750     300.4445   -6886.9969   -5678.2787   -8376.5869   -9022.4861 
  993800    307.63133   -6852.2854   -5614.6538   -8170.6795   -8546.7282 
  993850    312.65337   -6822.7383   -5564.9025   -7778.5283   -7401.8259 
  993900    311.22163   -6802.6674   -5550.5917   -7834.9138   -7638.2173 
  993950    302.98257   -6778.7498   -5559.8206   -7791.3746   -7461.7736 
  994000     309.7536   -6808.4444   -5562.2747   -7879.9659   -7749.7955 
  994050    298.14809   -6794.1461   -5594.6666   -7925.8565   -7794.9319 
  994100     306.1671   -6838.2174   -5606.4766    -8324.958   -9089.9403 
  994150    313.86884   -6868.4603   -5605.7346   -8292.9165   -8985.2824 
  994200    307.03046    -6875.126   -5639.9118   -8378.3957   -9156.8235 
  994250    307.45932   -6902.9404   -5666.0009   -8577.6686   -9735.9083 
  994300    306.35082   -6892.4446   -5659.9646   -8483.8735   -9442.4641 
  994350    306.64532   -6866.2054   -5632.5406   -8473.0114   -9497.8432 
  994400    313.17597   -6859.4854   -5599.5471   -8306.3145   -9050.7715 
  994450    314.07656   -6835.1234    -5571.562   -8160.2421   -8655.9162 
  994500    302.24818   -6791.0103   -5575.0356   -7756.2017   -7293.2885 
  994550    307.40869   -6832.1198   -5595.3839   -8126.7963   -8464.4271 
  994600    304.03785   -6879.1414   -5655.9667   -8600.2096   -9844.8316 
  994650    305.69308   -6928.9149   -5699.0811   -8538.9579    -9495.857 
  994700    293.67636   -6910.7759   -5729.2865    -8530.396   -9366.2284 
  994750    309.43693   -6923.5217    -5678.626   -8567.5594   -9659.8903 
  994800    301.92782   -6828.1837   -5613.4979   -8203.6379   -8660.7979 
  994850    307.70578   -6758.9682   -5521.0371   -7609.9785   -6984.9119 
  994900    312.01227   -6704.2464   -5448.9898   -7200.9513   -5858.1329 
  994950    322.04075   -6737.1142   -5441.5121   -7480.4175   -6817.6037 
  995000    307.39486   -6727.3337   -5490.6534   -7669.4915   -7285.5045 
  995050    301.53667   -6771.8691    -5558.757   -7885.8332   -7781.1765 
  995100    298.56093   -6805.8083   -5604.6678   -8281.4611   -8950.5454 
  995150    301.06277   -6800.9617   -5589.7561   -7910.9813    -7761.612 
  995200    304.81256   -6773.0875   -5546.7961   -7885.5091   -7820.0871 
  995250    301.98218   -6710.1615    -5495.257   -7532.6953   -6812.6977 
  995300    303.60524   -6648.9331   -5427.4989   -7026.4967   -5346.6594 
  995350     309.6644   -6602.0983   -5356.2875   -7012.4852   -5537.9223 
  995400    312.93699   -6590.4324   -5331.4556   -6932.6981   -5354.1652 
  995450    304.43245   -6620.3109   -5395.5488   -7073.1647   -5609.5395 
  995500    301.92382    -6690.779   -5476.1093   -7411.6379   -6471.9366 
  995550    291.69962   -6702.8604   -5529.3237   -7755.0646   -7442.3359 
  995600    307.38169   -6739.7814   -5503.1541   -7806.4782   -7701.7552 
  995650    311.46868   -6741.9535   -5488.8839   -7729.6183   -7492.4707 
  995700     305.1391   -6724.8107   -5497.2056   -7568.3186   -6925.2978 
  995750    308.79057   -6724.7904   -5482.4951    -7413.169   -6455.7035 
  995800    308.70525   -6726.8367   -5484.8846   -7802.9886   -7751.1759 
  995850    297.59051   -6715.1385   -5517.9022   -7265.6893    -5844.175 
  995900    306.18646   -6757.2509   -5525.4321    -8005.863   -8293.9573 
  995950    307.52902   -6770.1693   -5532.9493   -8236.4459   -9039.8346 
  996000    298.80517   -6731.8175   -5529.6945   -7925.4878   -8010.9499 
  996050    313.97097   -6757.2323   -5494.0957   -8000.7454   -8381.6267 
  996100    303.98017   -6740.2476    -5517.305   -7778.4601   -7560.7524 
  996150    311.78341   -6791.0517   -5536.7159   -7440.1729   -6364.6972 
  996200    303.07275   -6808.7929    -5589.501    -8077.374   -8318.8421 
  996250     301.7778   -6835.2181   -5621.1358   -8230.6928   -8725.7235 
  996300    302.52875   -6836.9457   -5619.8423   -8446.5322   -9451.7631 
  996350    303.16458   -6816.8094    -5597.148   -8168.0549    -8596.487 
  996400    302.99224   -6764.8103   -5545.8422   -7999.8022   -8205.4449 
  996450    318.60556   -6768.7738   -5486.9918   -7885.1582    -8018.885 
  996500    314.84483   -6763.0636   -5496.4113   -7936.5244   -8159.1445 
  996550    309.14156   -6752.4845   -5508.7771   -8009.1263   -8360.5591 
  996600    305.39823   -6740.6932   -5512.0456   -8065.5595    -8538.329 
  996650    299.56228   -6709.2237   -5504.0548   -7342.9322   -6148.7586 
  996700     291.8468   -6656.9156   -5482.7867   -7374.4409   -6325.2313 
  996750    313.79873   -6666.6394   -5404.1957   -7238.2916   -6132.7703 
  996800      304.137   -6600.7843   -5377.2107   -6890.0569   -5058.5894 
  996850    306.93914   -6593.8006   -5358.9537   -7178.6833   -6084.7328 
  996900    317.14821   -6625.8219   -5349.9029   -7013.3267   -5562.0843 
  996950    298.30747    -6615.042   -5414.9213   -6963.1587   -5176.9291 
  997000    306.74038   -6671.4653   -5437.4181   -7361.5652   -6433.8796 
  997050    301.83782   -6672.1606   -5457.8369   -7117.8558   -5550.6995 
  997100    300.37568   -6673.5873   -5465.1459   -7077.6395   -5391.7861 
  997150    307.77394   -6680.3683    -5442.163   -7260.8418   -6081.2194 
  997200    289.56302   -6601.6435   -5436.7025   -7235.0496   -6013.2353 
  997250    304.39417   -6609.2827   -5384.6745   -6929.3299   -5164.9518 
  997300    310.38518   -6604.1378   -5355.4272   -7187.8192    -6127.073 
  997350      318.525   -6602.0993   -5320.6414   -7188.2861   -6244.9496 
  997400    311.48329   -6586.2253   -5333.0968   -6754.6941   -4753.4752 
  997450     292.3944   -6574.7357   -5398.4038   -6928.5089   -5116.2992 
  997500    305.33448    -6640.209   -5411.8178   -7301.9232   -6320.0524 
  997550    304.51416   -6618.3481   -5393.2573   -7452.8881   -6886.9045 
  997600    301.63667   -6570.2003   -5356.6858   -7194.1033   -6143.8767 
  997650    303.42402   -6528.2405   -5307.5354   -6576.1811   -4242.0427 
  997700    301.96631   -6488.1285   -5273.2879   -6738.4044   -4898.9932 
  997750    314.17742   -6506.2506   -5242.2834   -6607.3911   -4564.5882 
  997800    324.99383   -6553.4056    -5245.923   -6832.9078    -5306.491 
  997850    303.23838   -6515.0788   -5295.1205   -6616.5949    -4418.689 
  997900    310.38832   -6565.8919   -5317.1686   -6961.4212   -5497.9805 
  997950    289.86045   -6560.9772   -5394.8396    -7026.122   -5454.6112 
  998000    307.03126   -6611.7361   -5376.5187   -7012.8008   -5471.3292 
  998050    310.04431    -6586.542   -5339.2027   -6873.8951   -5131.6378 
  998100    305.78478    -6556.609   -5326.4063   -6993.7826   -5575.3007 
  998150    302.55152   -6523.4363   -5306.2413     -6734.64   -4776.2175 
  998200     310.9595   -6517.2447   -5266.2236   -6565.4377   -4344.2559 
  998250    297.56168   -6438.5993   -5241.4789    -6285.456   -3490.8053 
  998300    298.41448   -6402.3904   -5201.8392   -6292.0758   -3645.4859 
  998350    315.66141   -6421.5382   -5151.6007   -6224.4915   -3587.4857 
  998400    307.31831   -6379.3117   -5142.9395   -5986.5749   -2820.9116 
  998450    302.63847    -6369.674   -5152.1292   -6064.9452   -3052.2344 
  998500    304.85622   -6368.4731   -5142.0061    -6146.527   -3358.8735 
  998550    296.47649   -6302.4325   -5109.6779   -5739.5049    -2105.988 
  998600    308.88245   -6290.2401   -5047.5751   -5379.5761   -1110.1305 
  998650    305.29358   -6270.2357   -5042.0091   -5243.0368   -672.18782 
  998700    297.17373   -6237.7774   -5042.2178   -5503.1057   -1541.0971 
  998750    312.66651   -6295.6251   -5037.7365   -5623.2958   -1957.9677 
  998800    289.19283   -6215.4371   -5051.9855   -5376.4328   -1084.8728 
  998850    306.38785   -6224.1705   -4991.5416   -5455.9874   -1552.9937 
  998900    317.10201   -6214.9853   -4939.2522   -5338.8376   -1336.1163 
  998950    312.19822    -6206.298   -4950.2933   -5378.6455   -1432.3054 
  999000    310.44155   -6239.0943   -4990.1569   -5523.0294   -1781.7959 
  999050    307.86493   -6275.0363   -5036.4649    -5624.007   -1964.5976 
  999100    294.68272   -6253.4857   -5067.9477   -5753.7798   -2293.2558 
  999150    305.54739   -6276.8079   -5047.5602   -5719.6197   -2247.2034 
  999200    309.09249   -6303.8466   -5060.3366   -5831.4584   -2578.4438 
  999250    300.24044   -6323.9415   -5116.0442   -5721.4258   -2024.2489 
  999300    310.96657   -6408.3764   -5157.3268   -6313.9749   -3867.5497 
  999350    295.05057   -6408.8905   -5221.8726   -6395.7713   -3925.2318 
  999400    307.89966   -6467.9922   -5229.2811   -6320.7883   -3649.7342 
  999450    306.17855   -6449.1616   -5217.3747   -6225.5597   -3371.1255 
  999500    302.83214   -6433.9145   -5215.5906   -6387.2361   -3917.6976 
  999550    309.67533   -6454.7963   -5208.9415    -6401.371   -3987.1941 
  999600    299.90829    -6404.435    -5197.874   -6119.2293   -3080.7879 
  999650    305.87166    -6379.704   -5149.1517   -6063.0921   -3055.9943 
  999700    298.81125   -6298.5815    -5096.434    -5874.998   -2603.3285 
  999750    318.89187   -6315.5281   -5032.5942   -5800.6025   -2568.0328 
  999800    310.72003   -6293.9166   -5043.8588   -5491.8722   -1498.0475 
  999850    289.79794   -6245.1109   -5079.2248   -5498.0011    -1400.286 
  999900    301.99744   -6237.1722   -5022.2063   -4993.4084    96.293319 
  999950    314.78157   -6215.7004   -4949.3027    -5142.551   -646.17526 
 1000000    312.85066   -6190.3644   -4931.7349   -4962.2438   -102.01432 
Loop time of 26356.9 on 1 procs for 1000000 steps with 2004 atoms

Performance: 6.556 ns/day, 3.661 hours/ns, 37.941 timesteps/s
99.9% CPU use with 1 MPI tasks x 1 OpenMP threads

MPI task timing breakdown:
Section |  min time  |  avg time  |  max time  |%varavg| %total
---------------------------------------------------------------
Pair    | 21339      | 21339      | 21339      |   0.0 | 80.96
Bond    | 54.594     | 54.594     | 54.594     |   0.0 |  0.21
Kspace  | 1542.7     | 1542.7     | 1542.7     |   0.0 |  5.85
Neigh   | 1960.5     | 1960.5     | 1960.5     |   0.0 |  7.44
Comm    | 87.036     | 87.036     | 87.036     |   0.0 |  0.33
Output  | 0.3916     | 0.3916     | 0.3916     |   0.0 |  0.00
Modify  | 265.71     | 265.71     | 265.71     |   0.0 |  1.01
Other   |            | 1107       |            |       |  4.20

Nlocal:    2004 ave 2004 max 2004 min
Histogram: 1 0 0 0 0 0 0 0 0 0
Nghost:    11221 ave 11221 max 11221 min
Histogram: 1 0 0 0 0 0 0 0 0 0
Neighs:    707851 ave 707851 max 707851 min
Histogram: 1 0 0 0 0 0 0 0 0 0

Total # of neighbors = 707851
Ave neighs/atom = 353.219
Ave special neighs/atom = 2.34032
Neighbor list builds = 86722
Dangerous builds = 0

#write_restart     restart.peptide.${rep}.*
#write_data        data.peptide.${rep}

quit
