LAMMPS (22 Aug 2018)
Running on 2 partitions of processors
Step T0 T1
0 0 1
1000 0 1
2000 0 1
3000 0 1
4000 0 1
5000 0 1
6000 0 1
7000 0 1
8000 0 1
9000 0 1
10000 0 1
